
     Program PHONON v.7.2 starts on 10Jul2024 at 11:55:32 

     This program is part of the open-source Quantum ESPRESSO suite
     for quantum simulation of materials; please cite
         "P. Giannozzi et al., J. Phys.:Condens. Matter 21 395502 (2009);
         "P. Giannozzi et al., J. Phys.:Condens. Matter 29 465901 (2017);
         "P. Giannozzi et al., J. Chem. Phys. 152 154105 (2020);
          URL http://www.quantum-espresso.org", 
     in publications or presentations arising from this work. More details at
     http://www.quantum-espresso.org/quote

     Parallel version (MPI & OpenMP), running on      96 processor cores
     Number of MPI processes:                96
     Threads/MPI process:                     1

     MPI processes distributed on     1 nodes
     89100 MiB available memory on the printing compute node when the environment starts
 
     Waiting for input...
     Reading input from standard input

     Reading xml data from directory:

     out_GaN/GaN.save/
 
     K-points division:     npool     =       3
     R & G space division:  proc/nbgrp/npool/nimage =      32
     Subspace diagonalization in iterative solution of the eigenvalue problem:
     a serial algorithm will be used

     file Ga.pbe-dn-kjpaw_psl.1.0.0.UPF: wavefunction(s)  4S renormalized
     file N.pbe-n-kjpaw_psl.1.0.0.UPF: wavefunction(s)  2S renormalized

     IMPORTANT: XC functional enforced from input :
     Exchange-correlation= PBE
                           (   1   4   3   4   0   0   0)
     Any further DFT definition will be discarded
     Please, verify this is what you really want

 
     Parallelization info
     --------------------
     sticks:   dense  smooth     PW     G-vecs:    dense   smooth      PW
     Min          31      31      9                 1305     1305     205
     Max          32      32     10                 1312     1312     210
     Sum        1003    1003    295                41829    41829    6627
 
     Using Slab Decomposition
 

     Check: negative core charge=   -0.000001
     Reading collected, re-writing distributed wavefunctions in out_GaN/


     Dynamical matrices for ( 4, 4, 4)  uniform grid of q-points
     (  12 q-points):
       N         xq(1)         xq(2)         xq(3) 
       1   0.000000000   0.000000000   0.000000000
       2   0.000000000   0.000000000   0.153539628
       3   0.000000000   0.000000000  -0.307079256
       4   0.000000000   0.288675135   0.000000000
       5   0.000000000   0.288675135   0.153539628
       6   0.000000000   0.288675135  -0.307079256
       7   0.000000000  -0.577350269   0.000000000
       8   0.000000000  -0.577350269   0.153539628
       9   0.000000000  -0.577350269  -0.307079256
      10   0.250000000   0.433012702   0.000000000
      11   0.250000000   0.433012702   0.153539628
      12   0.250000000   0.433012702  -0.307079256
Eigenvectors exchange needed    1    3
Eigenvectors exchange needed    3    4
Eigenvectors exchange needed    5    9
Eigenvectors exchange needed    5   10
Eigenvectors exchange needed    6    9
Eigenvectors exchange needed    7   10
Eigenvectors exchange needed    9   11
Eigenvectors exchange needed    9   12
Eigenvectors exchange needed   10   11
Eigenvectors exchange needed   11   12
Eigenvectors exchange needed    1    7
Eigenvectors exchange needed    3    9
Eigenvectors exchange needed    5   11
Eigenvectors exchange needed    7    8
Eigenvectors exchange needed    9   10
Eigenvectors exchange needed   11   12

     Calculation of q =    0.0000000   0.0000000   0.0000000

     phonon ph.x                                                                

     bravais-lattice index     =            4
     lattice parameter (alat)  =       6.0262  a.u.
     unit-cell volume          =     308.5900 (a.u.)^3
     number of atoms/cell      =            4
     number of atomic types    =            2
     kinetic-energy cut-off    =     100.0000  Ry
     charge density cut-off    =     400.0000  Ry
     convergence threshold     =      1.0E-14
     beta                      =       0.7000
     number of iterations used =            4
     Exchange-correlation= PBE
                           (   1   4   3   4   0   0   0)


     celldm(1)=    6.02621  celldm(2)=    0.00000  celldm(3)=    1.62824
     celldm(4)=    0.00000  celldm(5)=    0.00000  celldm(6)=    0.00000

     crystal axes: (cart. coord. in units of alat)
               a(1) = (  1.0000  0.0000  0.0000 )  
               a(2) = ( -0.5000  0.8660  0.0000 )  
               a(3) = (  0.0000  0.0000  1.6282 )  

     reciprocal axes: (cart. coord. in units 2 pi/alat)
               b(1) = (  1.0000  0.5774  0.0000 )  
               b(2) = (  0.0000  1.1547  0.0000 )  
               b(3) = (  0.0000  0.0000  0.6142 )  


     Atoms inside the unit cell: 

     Cartesian axes

     site n.  atom      mass           positions (alat units)
        1     Ga  69.7230   tau(    1) = (    0.50000    0.28868    0.81263  )
        2     Ga  69.7230   tau(    2) = (   -0.00000    0.57735    1.62675  )
        3     N   14.0065   tau(    3) = (    0.50000    0.28868    1.42621  )
        4     N   14.0065   tau(    4) = (   -0.00000    0.57735    0.61208  )

     Computing dynamical matrix for 
                    q = (   0.0000000   0.0000000   0.0000000 )
 
     13 Sym.Ops. (with q -> -q+G )


     G cutoff =  367.9494  (   1312 G-vectors)     FFT grid: ( 40, 40, 64)
     number of k points=    12

     PseudoPot. # 1 for Ga read from file:
     /home/ee5/local/espresso/pseudo/Ga.pbe-dn-kjpaw_psl.1.0.0.UPF
     MD5 check sum: 9ec968fb6aa164ad922e5aaa76dd79f0
     Pseudo is Projector augmented-wave + core cor, Zval = 13.0
     Generated using &quot;atomic&quot; code by A. Dal Corso  v.6.3
     Shape of augmentation charge: PSQ
     Using radial grid of 1205 points,  6 beta functions with: 
                l(1) =   0
                l(2) =   0
                l(3) =   1
                l(4) =   1
                l(5) =   2
                l(6) =   2
     Q(r) pseudized with 0 coefficients 


     PseudoPot. # 2 for N  read from file:
     /home/ee5/local/espresso/pseudo/N.pbe-n-kjpaw_psl.1.0.0.UPF
     MD5 check sum: c8d345807381b1d4df424700dd57e850
     Pseudo is Projector augmented-wave + core cor, Zval =  5.0
     Generated using &quot;atomic&quot; code by A. Dal Corso  v.6.3
     Shape of augmentation charge: PSQ
     Using radial grid of 1085 points,  4 beta functions with: 
                l(1) =   0
                l(2) =   0
                l(3) =   1
                l(4) =   1
     Q(r) pseudized with 0 coefficients 


     Mode symmetry, C_6v (6mm)  point group:


     Electric field:
     Dielectric constant
     Born effective charges in two ways 


     Atomic displacements:
     There are    8 irreducible representations

     Representation     1      1 modes -  To be done

     Representation     2      1 modes -  To be done

     Representation     3      1 modes -  To be done

     Representation     4      1 modes -  To be done

     Representation     5      2 modes -  To be done

     Representation     6      2 modes -  To be done

     Representation     7      2 modes -  To be done

     Representation     8      2 modes -  To be done



     Alpha used in Ewald sum =   2.8000
     PHONON       :      1.36s CPU      1.63s WALL


     Electric Fields Calculation

      iter #   1 total cpu time :     6.9 secs   av.it.:   9.2
      thresh= 1.000E-02 alpha_mix =  0.700 |ddv_scf|^2 =  2.415E-08

      iter #   2 total cpu time :     9.8 secs   av.it.:  21.8
      thresh= 1.554E-05 alpha_mix =  0.700 |ddv_scf|^2 =  1.241E-09

      iter #   3 total cpu time :    12.1 secs   av.it.:  20.4
      thresh= 3.523E-06 alpha_mix =  0.700 |ddv_scf|^2 =  1.824E-10

      iter #   4 total cpu time :    14.3 secs   av.it.:  20.0
      thresh= 1.350E-06 alpha_mix =  0.700 |ddv_scf|^2 =  1.011E-10

      iter #   5 total cpu time :    16.5 secs   av.it.:  19.8
      thresh= 1.005E-06 alpha_mix =  0.700 |ddv_scf|^2 =  6.801E-13

      iter #   6 total cpu time :    19.2 secs   av.it.:  26.4
      thresh= 8.247E-08 alpha_mix =  0.700 |ddv_scf|^2 =  1.631E-13

      iter #   7 total cpu time :    22.0 secs   av.it.:  28.2
      thresh= 4.038E-08 alpha_mix =  0.700 |ddv_scf|^2 =  3.617E-13

      iter #   8 total cpu time :    24.8 secs   av.it.:  29.5
      thresh= 6.014E-08 alpha_mix =  0.700 |ddv_scf|^2 =  1.080E-15

     End of electric fields calculation

          Dielectric constant in cartesian axis 

          (       5.342624590      -0.000000000      -0.000000000 )
          (       0.000000000       5.342624590       0.000000000 )
          (       0.000000000      -0.000000000       5.806775127 )

          Effective charges (d Force / dE) in cartesian axis without acoustic sum rule applied (asr)

           atom      1   Ga Mean Z*:        2.67224
      Ex  (        2.62562        0.00000        0.00000 )
      Ey  (        0.00000        2.62562        0.00000 )
      Ez  (        0.00000       -0.00000        2.76550 )
           atom      2   Ga Mean Z*:        2.67224
      Ex  (        2.62562        0.00000        0.00000 )
      Ey  (       -0.00000        2.62562       -0.00000 )
      Ez  (        0.00000        0.00000        2.76550 )
           atom      3   N  Mean Z*:       -2.59916
      Ex  (       -2.51614        0.00000        0.00000 )
      Ey  (       -0.00000       -2.51614        0.00000 )
      Ez  (        0.00000        0.00000       -2.76521 )
           atom      4   N  Mean Z*:       -2.59916
      Ex  (       -2.51614        0.00000        0.00000 )
      Ey  (       -0.00000       -2.51614        0.00000 )
      Ez  (        0.00000       -0.00000       -2.76521 )

          Effective charges Sum: Mean:        0.14616
              0.21895       -0.00000        0.00000
              0.00000        0.21895       -0.00000
              0.00000        0.00000        0.00056

          Effective charges (d Force / dE) in cartesian axis with asr applied: 
           atom      1   Ga Mean Z*:        2.63570
      E*x (        2.57088        0.00000        0.00000 )
      E*y (        0.00000        2.57088        0.00000 )
      E*z (        0.00000       -0.00000        2.76535 )
           atom      2   Ga Mean Z*:        2.63570
      E*x (        2.57088        0.00000        0.00000 )
      E*y (       -0.00000        2.57088       -0.00000 )
      E*z (       -0.00000        0.00000        2.76535 )
           atom      3   N  Mean Z*:       -2.63570
      E*x (       -2.57088       -0.00000       -0.00000 )
      E*y (       -0.00000       -2.57088       -0.00000 )
      E*z (       -0.00000        0.00000       -2.76535 )
           atom      4   N  Mean Z*:       -2.63570
      E*x (       -2.57088       -0.00000       -0.00000 )
      E*y (       -0.00000       -2.57088        0.00000 )
      E*z (       -0.00000        0.00000       -2.76535 )


     Representation #   1 mode #   1

     Self-consistent Calculation

      iter #   1 total cpu time :    26.5 secs   av.it.:   8.4
      thresh= 1.000E-02 alpha_mix =  0.700 |ddv_scf|^2 =  1.005E-06

      iter #   2 total cpu time :    27.2 secs   av.it.:  17.3
      thresh= 1.003E-04 alpha_mix =  0.700 |ddv_scf|^2 =  9.132E-09

      iter #   3 total cpu time :    28.0 secs   av.it.:  17.5
      thresh= 9.556E-06 alpha_mix =  0.700 |ddv_scf|^2 =  2.830E-10

      iter #   4 total cpu time :    28.8 secs   av.it.:  19.5
      thresh= 1.682E-06 alpha_mix =  0.700 |ddv_scf|^2 =  1.971E-10

      iter #   5 total cpu time :    29.4 secs   av.it.:  18.2
      thresh= 1.404E-06 alpha_mix =  0.700 |ddv_scf|^2 =  7.779E-13

      iter #   6 total cpu time :    30.2 secs   av.it.:  20.2
      thresh= 8.820E-08 alpha_mix =  0.700 |ddv_scf|^2 =  1.117E-13

      iter #   7 total cpu time :    30.9 secs   av.it.:  20.6
      thresh= 3.343E-08 alpha_mix =  0.700 |ddv_scf|^2 =  1.327E-14

      iter #   8 total cpu time :    31.6 secs   av.it.:  20.4
      thresh= 1.152E-08 alpha_mix =  0.700 |ddv_scf|^2 =  4.940E-17

     End of self-consistent calculation

     Convergence has been achieved 


     Representation #   2 mode #   2

     Self-consistent Calculation

      iter #   1 total cpu time :    32.3 secs   av.it.:  12.4
      thresh= 1.000E-02 alpha_mix =  0.700 |ddv_scf|^2 =  1.122E-05

      iter #   2 total cpu time :    33.0 secs   av.it.:  17.1
      thresh= 3.349E-04 alpha_mix =  0.700 |ddv_scf|^2 =  2.510E-07

      iter #   3 total cpu time :    33.7 secs   av.it.:  18.8
      thresh= 5.010E-05 alpha_mix =  0.700 |ddv_scf|^2 =  7.776E-08

      iter #   4 total cpu time :    34.4 secs   av.it.:  18.6
      thresh= 2.789E-05 alpha_mix =  0.700 |ddv_scf|^2 =  2.387E-08

      iter #   5 total cpu time :    35.0 secs   av.it.:  18.3
      thresh= 1.545E-05 alpha_mix =  0.700 |ddv_scf|^2 =  1.382E-10

      iter #   6 total cpu time :    35.7 secs   av.it.:  20.2
      thresh= 1.175E-06 alpha_mix =  0.700 |ddv_scf|^2 =  6.031E-12

      iter #   7 total cpu time :    36.4 secs   av.it.:  20.6
      thresh= 2.456E-07 alpha_mix =  0.700 |ddv_scf|^2 =  6.185E-13

      iter #   8 total cpu time :    37.1 secs   av.it.:  20.5
      thresh= 7.864E-08 alpha_mix =  0.700 |ddv_scf|^2 =  1.272E-14

      iter #   9 total cpu time :    37.9 secs   av.it.:  19.8
      thresh= 1.128E-08 alpha_mix =  0.700 |ddv_scf|^2 =  2.305E-16

     End of self-consistent calculation

     Convergence has been achieved 


     Representation #   3 mode #   3

     Self-consistent Calculation

      iter #   1 total cpu time :    38.6 secs   av.it.:  12.5
      thresh= 1.000E-02 alpha_mix =  0.700 |ddv_scf|^2 =  9.540E-05

      iter #   2 total cpu time :    39.2 secs   av.it.:  17.0
      thresh= 9.767E-04 alpha_mix =  0.700 |ddv_scf|^2 =  7.481E-05

      iter #   3 total cpu time :    39.9 secs   av.it.:  16.8
      thresh= 8.649E-04 alpha_mix =  0.700 |ddv_scf|^2 =  7.936E-06

      iter #   4 total cpu time :    40.5 secs   av.it.:  15.8
      thresh= 2.817E-04 alpha_mix =  0.700 |ddv_scf|^2 =  5.477E-07

      iter #   5 total cpu time :    41.2 secs   av.it.:  16.9
      thresh= 7.401E-05 alpha_mix =  0.700 |ddv_scf|^2 =  1.023E-07

      iter #   6 total cpu time :    42.0 secs   av.it.:  18.2
      thresh= 3.199E-05 alpha_mix =  0.700 |ddv_scf|^2 =  1.837E-08

      iter #   7 total cpu time :    42.8 secs   av.it.:  20.3
      thresh= 1.355E-05 alpha_mix =  0.700 |ddv_scf|^2 =  2.309E-09

      iter #   8 total cpu time :    43.5 secs   av.it.:  18.2
      thresh= 4.805E-06 alpha_mix =  0.700 |ddv_scf|^2 =  2.649E-11

      iter #   9 total cpu time :    44.3 secs   av.it.:  17.5
      thresh= 5.147E-07 alpha_mix =  0.700 |ddv_scf|^2 =  2.563E-13

      iter #  10 total cpu time :    45.0 secs   av.it.:  18.8
      thresh= 5.063E-08 alpha_mix =  0.700 |ddv_scf|^2 =  2.435E-14

      iter #  11 total cpu time :    45.7 secs   av.it.:  17.4
      thresh= 1.561E-08 alpha_mix =  0.700 |ddv_scf|^2 =  2.779E-16

     End of self-consistent calculation

     Convergence has been achieved 


     Representation #   4 mode #   4

     Self-consistent Calculation

      iter #   1 total cpu time :    46.4 secs   av.it.:   8.7
      thresh= 1.000E-02 alpha_mix =  0.700 |ddv_scf|^2 =  2.308E-05

      iter #   2 total cpu time :    47.0 secs   av.it.:  16.8
      thresh= 4.804E-04 alpha_mix =  0.700 |ddv_scf|^2 =  2.144E-05

      iter #   3 total cpu time :    47.7 secs   av.it.:  16.3
      thresh= 4.630E-04 alpha_mix =  0.700 |ddv_scf|^2 =  1.223E-07

      iter #   4 total cpu time :    48.4 secs   av.it.:  18.2
      thresh= 3.498E-05 alpha_mix =  0.700 |ddv_scf|^2 =  1.543E-08

      iter #   5 total cpu time :    49.1 secs   av.it.:  18.2
      thresh= 1.242E-05 alpha_mix =  0.700 |ddv_scf|^2 =  7.319E-10

      iter #   6 total cpu time :    49.9 secs   av.it.:  19.9
      thresh= 2.705E-06 alpha_mix =  0.700 |ddv_scf|^2 =  5.896E-12

      iter #   7 total cpu time :    50.6 secs   av.it.:  16.2
      thresh= 2.428E-07 alpha_mix =  0.700 |ddv_scf|^2 =  2.275E-13

      iter #   8 total cpu time :    51.3 secs   av.it.:  18.2
      thresh= 4.769E-08 alpha_mix =  0.700 |ddv_scf|^2 =  6.359E-15

     End of self-consistent calculation

     Convergence has been achieved 


     Representation #   5 modes #   5   6

     Self-consistent Calculation

      iter #   1 total cpu time :    52.4 secs   av.it.:   8.8
      thresh= 1.000E-02 alpha_mix =  0.700 |ddv_scf|^2 =  2.574E-07

      iter #   2 total cpu time :    53.6 secs   av.it.:  19.2
      thresh= 5.074E-05 alpha_mix =  0.700 |ddv_scf|^2 =  2.532E-09

      iter #   3 total cpu time :    54.8 secs   av.it.:  19.3
      thresh= 5.032E-06 alpha_mix =  0.700 |ddv_scf|^2 =  3.506E-11

      iter #   4 total cpu time :    56.0 secs   av.it.:  18.7
      thresh= 5.921E-07 alpha_mix =  0.700 |ddv_scf|^2 =  3.636E-13

      iter #   5 total cpu time :    57.3 secs   av.it.:  20.0
      thresh= 6.030E-08 alpha_mix =  0.700 |ddv_scf|^2 =  3.484E-15

     End of self-consistent calculation

     Convergence has been achieved 


     Representation #   6 modes #   7   8

     Self-consistent Calculation

      iter #   1 total cpu time :    58.4 secs   av.it.:  12.8
      thresh= 1.000E-02 alpha_mix =  0.700 |ddv_scf|^2 =  2.812E-06

      iter #   2 total cpu time :    59.7 secs   av.it.:  19.9
      thresh= 1.677E-04 alpha_mix =  0.700 |ddv_scf|^2 =  6.213E-08

      iter #   3 total cpu time :    61.0 secs   av.it.:  22.3
      thresh= 2.493E-05 alpha_mix =  0.700 |ddv_scf|^2 =  1.854E-08

      iter #   4 total cpu time :    62.3 secs   av.it.:  20.6
      thresh= 1.362E-05 alpha_mix =  0.700 |ddv_scf|^2 =  1.059E-10

      iter #   5 total cpu time :    63.6 secs   av.it.:  21.0
      thresh= 1.029E-06 alpha_mix =  0.700 |ddv_scf|^2 =  1.689E-12

      iter #   6 total cpu time :    65.0 secs   av.it.:  22.1
      thresh= 1.300E-07 alpha_mix =  0.700 |ddv_scf|^2 =  2.515E-13

      iter #   7 total cpu time :    66.5 secs   av.it.:  21.1
      thresh= 5.015E-08 alpha_mix =  0.700 |ddv_scf|^2 =  1.732E-15

     End of self-consistent calculation

     Convergence has been achieved 


     Representation #   7 modes #   9  10

     Self-consistent Calculation

      iter #   1 total cpu time :    67.9 secs   av.it.:  12.9
      thresh= 1.000E-02 alpha_mix =  0.700 |ddv_scf|^2 =  3.082E-06

      iter #   2 total cpu time :    69.3 secs   av.it.:  19.9
      thresh= 1.756E-04 alpha_mix =  0.700 |ddv_scf|^2 =  4.903E-08

      iter #   3 total cpu time :    70.8 secs   av.it.:  22.9
      thresh= 2.214E-05 alpha_mix =  0.700 |ddv_scf|^2 =  1.900E-08

      iter #   4 total cpu time :    72.2 secs   av.it.:  20.4
      thresh= 1.378E-05 alpha_mix =  0.700 |ddv_scf|^2 =  1.798E-10

      iter #   5 total cpu time :    73.6 secs   av.it.:  19.1
      thresh= 1.341E-06 alpha_mix =  0.700 |ddv_scf|^2 =  4.410E-12

      iter #   6 total cpu time :    75.1 secs   av.it.:  22.2
      thresh= 2.100E-07 alpha_mix =  0.700 |ddv_scf|^2 =  3.348E-13

      iter #   7 total cpu time :    76.6 secs   av.it.:  21.1
      thresh= 5.786E-08 alpha_mix =  0.700 |ddv_scf|^2 =  2.776E-15

     End of self-consistent calculation

     Convergence has been achieved 


     Representation #   8 modes #  11  12

     Self-consistent Calculation

      iter #   1 total cpu time :    78.1 secs   av.it.:   8.9
      thresh= 1.000E-02 alpha_mix =  0.700 |ddv_scf|^2 =  3.082E-07

      iter #   2 total cpu time :    79.5 secs   av.it.:  19.4
      thresh= 5.551E-05 alpha_mix =  0.700 |ddv_scf|^2 =  4.632E-09

      iter #   3 total cpu time :    81.0 secs   av.it.:  19.5
      thresh= 6.806E-06 alpha_mix =  0.700 |ddv_scf|^2 =  3.778E-11

      iter #   4 total cpu time :    82.3 secs   av.it.:  18.8
      thresh= 6.147E-07 alpha_mix =  0.700 |ddv_scf|^2 =  4.114E-13

      iter #   5 total cpu time :    83.7 secs   av.it.:  19.2
      thresh= 6.414E-08 alpha_mix =  0.700 |ddv_scf|^2 =  6.044E-15

     End of self-consistent calculation

     Convergence has been achieved 
 
     Number of q in the star =    1
     List of q in the star:
          1   0.000000000   0.000000000   0.000000000

          Dielectric constant in cartesian axis 

          (       5.342624590      -0.000000000      -0.000000000 )
          (       0.000000000       5.342624590       0.000000000 )
          (       0.000000000      -0.000000000       5.806775127 )

          Effective charges (d Force / dE) in cartesian axis without acoustic sum rule applied (asr)

           atom      1   Ga Mean Z*:        2.67224
      Ex  (        2.62562        0.00000        0.00000 )
      Ey  (        0.00000        2.62562        0.00000 )
      Ez  (        0.00000       -0.00000        2.76550 )
           atom      2   Ga Mean Z*:        2.67224
      Ex  (        2.62562        0.00000        0.00000 )
      Ey  (       -0.00000        2.62562       -0.00000 )
      Ez  (        0.00000        0.00000        2.76550 )
           atom      3   N  Mean Z*:       -2.59916
      Ex  (       -2.51614        0.00000        0.00000 )
      Ey  (       -0.00000       -2.51614        0.00000 )
      Ez  (        0.00000        0.00000       -2.76521 )
           atom      4   N  Mean Z*:       -2.59916
      Ex  (       -2.51614        0.00000        0.00000 )
      Ey  (       -0.00000       -2.51614        0.00000 )
      Ez  (        0.00000       -0.00000       -2.76521 )

          Effective charges Sum: Mean:        0.14616
              0.21895       -0.00000        0.00000
              0.00000        0.21895       -0.00000
              0.00000        0.00000        0.00056

          Effective charges (d Force / dE) in cartesian axis with asr applied: 
           atom      1   Ga Mean Z*:        2.63570
      E*x (        2.57088        0.00000        0.00000 )
      E*y (        0.00000        2.57088        0.00000 )
      E*z (        0.00000       -0.00000        2.76535 )
           atom      2   Ga Mean Z*:        2.63570
      E*x (        2.57088        0.00000        0.00000 )
      E*y (       -0.00000        2.57088       -0.00000 )
      E*z (       -0.00000        0.00000        2.76535 )
           atom      3   N  Mean Z*:       -2.63570
      E*x (       -2.57088       -0.00000       -0.00000 )
      E*y (       -0.00000       -2.57088       -0.00000 )
      E*z (       -0.00000        0.00000       -2.76535 )
           atom      4   N  Mean Z*:       -2.63570
      E*x (       -2.57088       -0.00000       -0.00000 )
      E*y (       -0.00000       -2.57088        0.00000 )
      E*z (       -0.00000        0.00000       -2.76535 )

          Effective charges (d P / du) in cartesian axis 

           atom      1   Ga 
      Px  (        2.62565        0.00000        0.00000 )
      Py  (        0.00000        2.62565        0.00000 )
      Pz  (       -0.00000        0.00000        2.76563 )
           atom      2   Ga 
      Px  (        2.62565        0.00000        0.00000 )
      Py  (        0.00000        2.62565        0.00000 )
      Pz  (       -0.00000        0.00000        2.76563 )
           atom      3   N  
      Px  (       -2.51575        0.00000        0.00000 )
      Py  (        0.00000       -2.51575        0.00000 )
      Pz  (        0.00000        0.00000       -2.76515 )
           atom      4   N  
      Px  (       -2.51575        0.00000        0.00000 )
      Py  (        0.00000       -2.51575        0.00000 )
      Pz  (        0.00000        0.00000       -2.76515 )

     Diagonalizing the dynamical matrix

     q = (    0.000000000   0.000000000   0.000000000 ) 

 **************************************************************************
     freq (    1) =      -1.391066 [THz] =     -46.400965 [cm-1]
     freq (    2) =      -1.066926 [THz] =     -35.588811 [cm-1]
     freq (    3) =      -1.066926 [THz] =     -35.588811 [cm-1]
     freq (    4) =       3.911536 [THz] =     130.474805 [cm-1]
     freq (    5) =       3.911536 [THz] =     130.474805 [cm-1]
     freq (    6) =       9.767114 [THz] =     325.795868 [cm-1]
     freq (    7) =      15.789211 [THz] =     526.671381 [cm-1]
     freq (    8) =      16.481814 [THz] =     549.774135 [cm-1]
     freq (    9) =      16.481814 [THz] =     549.774135 [cm-1]
     freq (   10) =      16.781423 [THz] =     559.768009 [cm-1]
     freq (   11) =      16.781423 [THz] =     559.768009 [cm-1]
     freq (   12) =      20.489365 [THz] =     683.451642 [cm-1]
 **************************************************************************

     Mode symmetry, C_6v (6mm)  point group:

     freq (   1-   1) =        -46.4  [cm-1]   --> A_1             I+R
     freq (   2-   3) =        -35.6  [cm-1]   --> E_1             I+R
     freq (   4-   5) =        130.5  [cm-1]   --> E_2             R  
     freq (   6-   6) =        325.8  [cm-1]   --> B_1                
     freq (   7-   7) =        526.7  [cm-1]   --> A_1             I+R
     freq (   8-   9) =        549.8  [cm-1]   --> E_1             I+R
     freq (  10-  11) =        559.8  [cm-1]   --> E_2             R  
     freq (  12-  12) =        683.5  [cm-1]   --> B_1                

     Calculation of q =    0.0000000   0.0000000   0.1535396
 
     Parallelization info
     --------------------
     sticks:   dense  smooth     PW     G-vecs:    dense   smooth      PW
     Min          31      31      9                 1305     1305     209
     Max          32      32     10                 1312     1312     214
     Sum        1003    1003    301                41829    41829    6729
 
     Using Slab Decomposition
 

     Title: 
     phonon ph.x                                                                


     bravais-lattice index     =            4
     lattice parameter (alat)  =       6.0262  a.u.
     unit-cell volume          =     308.5900 (a.u.)^3
     number of atoms/cell      =            4
     number of atomic types    =            2
     number of electrons       =        36.00
     number of Kohn-Sham states=           18
     kinetic-energy cutoff     =     100.0000  Ry
     charge density cutoff     =     400.0000  Ry
     Exchange-correlation= PBE
                           (   1   4   3   4   0   0   0)

     celldm(1)=   6.026205  celldm(2)=   0.000000  celldm(3)=   1.628244
     celldm(4)=   0.000000  celldm(5)=   0.000000  celldm(6)=   0.000000

     crystal axes: (cart. coord. in units of alat)
               a(1) = (   1.000000   0.000000   0.000000 )  
               a(2) = (  -0.500000   0.866025   0.000000 )  
               a(3) = (   0.000000   0.000000   1.628244 )  

     reciprocal axes: (cart. coord. in units 2 pi/alat)
               b(1) = (  1.000000  0.577350  0.000000 )  
               b(2) = (  0.000000  1.154701  0.000000 )  
               b(3) = (  0.000000  0.000000  0.614159 )  


     PseudoPot. # 1 for Ga read from file:
     /home/ee5/local/espresso/pseudo/Ga.pbe-dn-kjpaw_psl.1.0.0.UPF
     MD5 check sum: 9ec968fb6aa164ad922e5aaa76dd79f0
     Pseudo is Projector augmented-wave + core cor, Zval = 13.0
     Generated using &quot;atomic&quot; code by A. Dal Corso  v.6.3
     Shape of augmentation charge: PSQ
     Using radial grid of 1205 points,  6 beta functions with: 
                l(1) =   0
                l(2) =   0
                l(3) =   1
                l(4) =   1
                l(5) =   2
                l(6) =   2
     Q(r) pseudized with 0 coefficients 


     PseudoPot. # 2 for N  read from file:
     /home/ee5/local/espresso/pseudo/N.pbe-n-kjpaw_psl.1.0.0.UPF
     MD5 check sum: c8d345807381b1d4df424700dd57e850
     Pseudo is Projector augmented-wave + core cor, Zval =  5.0
     Generated using &quot;atomic&quot; code by A. Dal Corso  v.6.3
     Shape of augmentation charge: PSQ
     Using radial grid of 1085 points,  4 beta functions with: 
                l(1) =   0
                l(2) =   0
                l(3) =   1
                l(4) =   1
     Q(r) pseudized with 0 coefficients 


     atomic species   valence    mass     pseudopotential
        Ga            13.00    69.72300     Ga( 1.00)
        N              5.00    14.00650     N ( 1.00)

     12 Sym. Ops. (no inversion) found



   Cartesian axes

     site n.     atom                  positions (alat units)
         1           Ga  tau(   1) = (   0.5000000   0.2886751   0.8126301  )
         2           Ga  tau(   2) = (  -0.0000000   0.5773503   1.6267522  )
         3           N   tau(   3) = (   0.5000000   0.2886751   1.4262056  )
         4           N   tau(   4) = (  -0.0000000   0.5773503   0.6120835  )

     number of k points=    48
                       cart. coord. in units 2pi/alat
        k(    1) = (   0.1250000   0.2165064   0.0767698), wk =   0.0625000
        k(    2) = (   0.1250000   0.2165064   0.2303094), wk =   0.0000000
        k(    3) = (   0.1250000   0.2165064   0.2303094), wk =   0.0625000
        k(    4) = (   0.1250000   0.2165064   0.3838491), wk =   0.0000000
        k(    5) = (   0.1250000   0.5051815   0.0767698), wk =   0.1250000
        k(    6) = (   0.1250000   0.5051815   0.2303094), wk =   0.0000000
        k(    7) = (   0.1250000   0.5051815   0.2303094), wk =   0.1250000
        k(    8) = (   0.1250000   0.5051815   0.3838491), wk =   0.0000000
        k(    9) = (   0.1250000  -0.3608439   0.0767698), wk =   0.1250000
        k(   10) = (   0.1250000  -0.3608439   0.2303094), wk =   0.0000000
        k(   11) = (   0.1250000  -0.3608439   0.2303094), wk =   0.1250000
        k(   12) = (   0.1250000  -0.3608439   0.3838491), wk =   0.0000000
        k(   13) = (   0.1250000  -0.0721688   0.0767698), wk =   0.0625000
        k(   14) = (   0.1250000  -0.0721688   0.2303094), wk =   0.0000000
        k(   15) = (   0.1250000  -0.0721688   0.2303094), wk =   0.0625000
        k(   16) = (   0.1250000  -0.0721688   0.3838491), wk =   0.0000000
        k(   17) = (   0.3750000   0.6495191   0.0767698), wk =   0.0625000
        k(   18) = (   0.3750000   0.6495191   0.2303094), wk =   0.0000000
        k(   19) = (   0.3750000   0.6495191   0.2303094), wk =   0.0625000
        k(   20) = (   0.3750000   0.6495191   0.3838491), wk =   0.0000000
        k(   21) = (   0.3750000  -0.2165064   0.0767698), wk =   0.0625000
        k(   22) = (   0.3750000  -0.2165064   0.2303094), wk =   0.0000000
        k(   23) = (   0.3750000  -0.2165064   0.2303094), wk =   0.0625000
        k(   24) = (   0.3750000  -0.2165064   0.3838491), wk =   0.0000000
        k(   25) = (  -0.1250000  -0.2165064  -0.0767698), wk =   0.0625000
        k(   26) = (  -0.1250000  -0.2165064   0.0767698), wk =   0.0000000
        k(   27) = (  -0.1250000  -0.2165064  -0.2303094), wk =   0.0625000
        k(   28) = (  -0.1250000  -0.2165064  -0.0767698), wk =   0.0000000
        k(   29) = (  -0.1250000  -0.5051815  -0.0767698), wk =   0.1250000
        k(   30) = (  -0.1250000  -0.5051815   0.0767698), wk =   0.0000000
        k(   31) = (  -0.1250000  -0.5051815  -0.2303094), wk =   0.1250000
        k(   32) = (  -0.1250000  -0.5051815  -0.0767698), wk =   0.0000000
        k(   33) = (  -0.1250000   0.3608439  -0.0767698), wk =   0.1250000
        k(   34) = (  -0.1250000   0.3608439   0.0767698), wk =   0.0000000
        k(   35) = (  -0.1250000   0.3608439  -0.2303094), wk =   0.1250000
        k(   36) = (  -0.1250000   0.3608439  -0.0767698), wk =   0.0000000
        k(   37) = (  -0.1250000   0.0721688  -0.0767698), wk =   0.0625000
        k(   38) = (  -0.1250000   0.0721688   0.0767698), wk =   0.0000000
        k(   39) = (  -0.1250000   0.0721688  -0.2303094), wk =   0.0625000
        k(   40) = (  -0.1250000   0.0721688  -0.0767698), wk =   0.0000000
        k(   41) = (  -0.3750000  -0.6495191  -0.0767698), wk =   0.0625000
        k(   42) = (  -0.3750000  -0.6495191   0.0767698), wk =   0.0000000
        k(   43) = (  -0.3750000  -0.6495191  -0.2303094), wk =   0.0625000
        k(   44) = (  -0.3750000  -0.6495191  -0.0767698), wk =   0.0000000
        k(   45) = (  -0.3750000   0.2165064  -0.0767698), wk =   0.0625000
        k(   46) = (  -0.3750000   0.2165064   0.0767698), wk =   0.0000000
        k(   47) = (  -0.3750000   0.2165064  -0.2303094), wk =   0.0625000
        k(   48) = (  -0.3750000   0.2165064  -0.0767698), wk =   0.0000000

     Dense  grid:    41829 G-vectors     FFT dimensions: (  40,  40,  64)

     Estimated max dynamical RAM per process >       5.13 MB

     Estimated total dynamical RAM >     492.16 MB

     Check: negative core charge=   -0.000001

     The potential is recalculated from file :
     out_GaN/_ph0/GaN.save/charge-density

     Starting wfcs are   26 atomic wfcs
     Checking if some PAW data can be deallocated... 

     Band Structure Calculation
     Davidson diagonalization with overlap

     ethr =  2.78E-11,  avg # of iterations = 24.2

     total cpu time spent up to now is        2.6 secs

     End of band structure calculation

          k = 0.1250 0.2165 0.0768 (  5227 PWs)   bands (ev):

    -5.8444  -5.2949  -3.7212  -3.7123  -3.6556  -3.6450  -3.5606  -3.5040
    -3.5036  -3.4676  -3.3966  -2.0099   3.5008   6.5341   6.9063   7.9207
     9.0604   9.1487

          k = 0.1250 0.2165 0.2303 (  5216 PWs)   bands (ev):

    -5.6159  -5.3846  -3.7083  -3.6910  -3.6776  -3.6615  -3.5624  -3.5234
    -3.4616  -3.4396  -3.2631  -2.7272   4.7542   6.0846   7.2483   8.0418
     8.5086   8.6299

          k = 0.1250 0.2165 0.2303 (  5216 PWs)   bands (ev):

    -5.6159  -5.3846  -3.7083  -3.6910  -3.6776  -3.6615  -3.5624  -3.5234
    -3.4616  -3.4396  -3.2631  -2.7272   4.7542   6.0846   7.2483   8.0418
     8.5086   8.6299

          k = 0.1250 0.2165 0.3838 (  5216 PWs)   bands (ev):

    -5.6159  -5.3846  -3.7083  -3.6910  -3.6776  -3.6615  -3.5624  -3.5234
    -3.4616  -3.4396  -3.2631  -2.7272   4.7542   6.0846   7.2483   8.0418
     8.5086   8.6299

          k = 0.1250 0.5052 0.0768 (  5209 PWs)   bands (ev):

    -5.3647  -5.2150  -3.7168  -3.6733  -3.5808  -3.5537  -3.5243  -3.4863
    -3.4361  -3.4087  -2.3707  -1.6260   3.4044   4.4425   5.7038   6.4796
     7.7900   8.1061

          k = 0.1250 0.5052 0.2303 (  5208 PWs)   bands (ev):

    -5.2837  -5.2220  -3.7015  -3.6651  -3.6401  -3.5660  -3.5140  -3.4770
    -3.4310  -3.4228  -2.2006  -1.8897   3.2379   3.6933   6.5569   7.3431
     7.4972   8.2986

          k = 0.1250 0.5052 0.2303 (  5208 PWs)   bands (ev):

    -5.2837  -5.2220  -3.7015  -3.6651  -3.6401  -3.5660  -3.5140  -3.4770
    -3.4310  -3.4228  -2.2006  -1.8897   3.2379   3.6933   6.5569   7.3431
     7.4972   8.2986

          k = 0.1250 0.5052 0.3838 (  5208 PWs)   bands (ev):

    -5.2837  -5.2220  -3.7015  -3.6651  -3.6401  -3.5660  -3.5140  -3.4770
    -3.4310  -3.4228  -2.2006  -1.8897   3.2379   3.6933   6.5569   7.3431
     7.4972   8.2986

          k = 0.1250-0.3608 0.0768 (  5215 PWs)   bands (ev):

    -5.5389  -5.2377  -3.7061  -3.6848  -3.6106  -3.5775  -3.5389  -3.5086
    -3.4601  -3.4207  -3.0632  -1.7010   3.8372   5.2367   5.7531   6.9542
     8.4426   8.6090

          k = 0.1250-0.3608 0.2303 (  5203 PWs)   bands (ev):

    -5.3988  -5.2748  -3.6921  -3.6674  -3.6460  -3.6059  -3.5383  -3.5215
    -3.4423  -3.4317  -2.8151  -2.2793   4.1163   4.7947   6.8514   7.3065
     7.8726   8.4128

          k = 0.1250-0.3608 0.2303 (  5203 PWs)   bands (ev):

    -5.3988  -5.2748  -3.6921  -3.6674  -3.6460  -3.6059  -3.5383  -3.5215
    -3.4423  -3.4317  -2.8151  -2.2793   4.1163   4.7947   6.8514   7.3065
     7.8726   8.4128

          k = 0.1250-0.3608 0.3838 (  5203 PWs)   bands (ev):

    -5.3988  -5.2748  -3.6921  -3.6674  -3.6460  -3.6059  -3.5383  -3.5215
    -3.4423  -3.4317  -2.8151  -2.2793   4.1163   4.7947   6.8514   7.3065
     7.8726   8.4128

          k = 0.1250-0.0722 0.0768 (  5231 PWs)   bands (ev):

    -6.0853  -5.3523  -3.7538  -3.7370  -3.7038  -3.6806  -3.6731  -3.5135
    -3.5052  -3.4395  -3.4115  -2.2165   3.1454   7.6559   8.3078   8.3971
     9.3956   9.5054

          k = 0.1250-0.0722 0.2303 (  5226 PWs)   bands (ev):

    -5.8012  -5.4872  -3.7352  -3.7243  -3.7103  -3.6976  -3.5932  -3.4813
    -3.4725  -3.4340  -3.4213  -2.9722   4.7828   6.7868   8.1022   8.7040
     8.7841   9.1621

          k = 0.1250-0.0722 0.2303 (  5226 PWs)   bands (ev):

    -5.8012  -5.4872  -3.7352  -3.7243  -3.7103  -3.6976  -3.5932  -3.4813
    -3.4725  -3.4340  -3.4213  -2.9722   4.7828   6.7868   8.1022   8.7040
     8.7841   9.1621

          k = 0.1250-0.0722 0.3838 (  5226 PWs)   bands (ev):

    -5.8012  -5.4872  -3.7352  -3.7243  -3.7103  -3.6976  -3.5932  -3.4813
    -3.4725  -3.4340  -3.4213  -2.9722   4.7828   6.7868   8.1022   8.7040
     8.7841   9.1621

          k = 0.3750 0.6495 0.0768 (  5197 PWs)   bands (ev):

    -5.2820  -5.2244  -3.7451  -3.6114  -3.5656  -3.5363  -3.5258  -3.4916
    -3.4647  -3.4358  -1.9318  -1.6362   3.7854   4.3474   4.9199   6.5898
     7.0555   7.3671

          k = 0.3750 0.6495 0.2303 (  5202 PWs)   bands (ev):

    -5.2322  -5.2085  -3.6766  -3.6450  -3.6343  -3.5736  -3.4994  -3.4852
    -3.4567  -3.4529  -1.8478  -1.7215   3.4506   3.6693   5.3824   6.2691
     7.8092   8.1808

          k = 0.3750 0.6495 0.2303 (  5202 PWs)   bands (ev):

    -5.2322  -5.2085  -3.6766  -3.6450  -3.6343  -3.5736  -3.4994  -3.4852
    -3.4567  -3.4529  -1.8478  -1.7215   3.4506   3.6693   5.3824   6.2691
     7.8092   8.1808

          k = 0.3750 0.6495 0.3838 (  5202 PWs)   bands (ev):

    -5.2322  -5.2085  -3.6766  -3.6450  -3.6343  -3.5736  -3.4994  -3.4852
    -3.4567  -3.4529  -1.8478  -1.7215   3.4506   3.6693   5.3824   6.2691
     7.8092   8.1808

          k = 0.3750-0.2165 0.0768 (  5211 PWs)   bands (ev):

    -5.4655  -5.2254  -3.7105  -3.6803  -3.6049  -3.5589  -3.5341  -3.4941
    -3.4463  -3.3958  -2.8348  -1.6605   3.5443   4.8052   5.5076   7.2243
     8.2383   8.7676

          k = 0.3750-0.2165 0.2303 (  5197 PWs)   bands (ev):

    -5.3503  -5.2515  -3.7165  -3.6743  -3.6349  -3.5728  -3.5251  -3.4826
    -3.4367  -3.4168  -2.6029  -2.1294   3.5526   4.1568   6.8994   7.6326
     8.2226   8.2659

          k = 0.3750-0.2165 0.2303 (  5197 PWs)   bands (ev):

    -5.3503  -5.2515  -3.7165  -3.6743  -3.6349  -3.5728  -3.5251  -3.4826
    -3.4367  -3.4168  -2.6029  -2.1294   3.5526   4.1568   6.8994   7.6326
     8.2226   8.2659

          k = 0.3750-0.2165 0.3838 (  5197 PWs)   bands (ev):

    -5.3503  -5.2515  -3.7165  -3.6743  -3.6349  -3.5728  -3.5251  -3.4826
    -3.4367  -3.4168  -2.6029  -2.1294   3.5526   4.1568   6.8994   7.6326
     8.2226   8.2659

          k =-0.1250-0.2165-0.0768 (  5227 PWs)   bands (ev):

    -5.8444  -5.2949  -3.7212  -3.7123  -3.6556  -3.6450  -3.5606  -3.5040
    -3.5036  -3.4676  -3.3966  -2.0099   3.5008   6.5341   6.9063   7.9207
     9.0604   9.1487

          k =-0.1250-0.2165 0.0768 (  5227 PWs)   bands (ev):

    -5.8444  -5.2949  -3.7212  -3.7123  -3.6556  -3.6450  -3.5606  -3.5040
    -3.5036  -3.4676  -3.3966  -2.0099   3.5008   6.5341   6.9063   7.9207
     9.0604   9.1487

          k =-0.1250-0.2165-0.2303 (  5216 PWs)   bands (ev):

    -5.6159  -5.3846  -3.7083  -3.6910  -3.6776  -3.6615  -3.5624  -3.5234
    -3.4616  -3.4396  -3.2631  -2.7272   4.7542   6.0846   7.2483   8.0418
     8.5086   8.6299

          k =-0.1250-0.2165-0.0768 (  5227 PWs)   bands (ev):

    -5.8444  -5.2949  -3.7212  -3.7123  -3.6556  -3.6450  -3.5606  -3.5040
    -3.5036  -3.4676  -3.3966  -2.0099   3.5008   6.5341   6.9063   7.9207
     9.0604   9.1487

          k =-0.1250-0.5052-0.0768 (  5209 PWs)   bands (ev):

    -5.3647  -5.2150  -3.7168  -3.6733  -3.5808  -3.5537  -3.5243  -3.4863
    -3.4361  -3.4087  -2.3707  -1.6260   3.4044   4.4425   5.7038   6.4796
     7.7900   8.1061

          k =-0.1250-0.5052 0.0768 (  5209 PWs)   bands (ev):

    -5.3647  -5.2150  -3.7168  -3.6733  -3.5808  -3.5537  -3.5243  -3.4863
    -3.4361  -3.4087  -2.3707  -1.6260   3.4044   4.4425   5.7038   6.4796
     7.7900   8.1061

          k =-0.1250-0.5052-0.2303 (  5208 PWs)   bands (ev):

    -5.2837  -5.2220  -3.7015  -3.6651  -3.6401  -3.5660  -3.5140  -3.4770
    -3.4310  -3.4228  -2.2006  -1.8897   3.2379   3.6933   6.5569   7.3431
     7.4972   8.2986

          k =-0.1250-0.5052-0.0768 (  5209 PWs)   bands (ev):

    -5.3647  -5.2150  -3.7168  -3.6733  -3.5808  -3.5537  -3.5243  -3.4863
    -3.4361  -3.4087  -2.3707  -1.6260   3.4044   4.4425   5.7038   6.4796
     7.7900   8.1061

          k =-0.1250 0.3608-0.0768 (  5215 PWs)   bands (ev):

    -5.5389  -5.2377  -3.7061  -3.6848  -3.6106  -3.5775  -3.5389  -3.5086
    -3.4601  -3.4207  -3.0632  -1.7010   3.8372   5.2367   5.7531   6.9542
     8.4426   8.6090

          k =-0.1250 0.3608 0.0768 (  5215 PWs)   bands (ev):

    -5.5389  -5.2377  -3.7061  -3.6848  -3.6106  -3.5775  -3.5389  -3.5086
    -3.4601  -3.4207  -3.0632  -1.7010   3.8372   5.2367   5.7531   6.9542
     8.4426   8.6090

          k =-0.1250 0.3608-0.2303 (  5203 PWs)   bands (ev):

    -5.3988  -5.2748  -3.6921  -3.6674  -3.6460  -3.6059  -3.5383  -3.5215
    -3.4423  -3.4317  -2.8151  -2.2793   4.1163   4.7947   6.8514   7.3065
     7.8726   8.4128

          k =-0.1250 0.3608-0.0768 (  5215 PWs)   bands (ev):

    -5.5389  -5.2377  -3.7061  -3.6848  -3.6106  -3.5775  -3.5389  -3.5086
    -3.4601  -3.4207  -3.0632  -1.7010   3.8372   5.2367   5.7531   6.9542
     8.4426   8.6090

          k =-0.1250 0.0722-0.0768 (  5231 PWs)   bands (ev):

    -6.0853  -5.3523  -3.7538  -3.7370  -3.7038  -3.6806  -3.6731  -3.5135
    -3.5052  -3.4395  -3.4115  -2.2165   3.1454   7.6559   8.3078   8.3971
     9.3956   9.5054

          k =-0.1250 0.0722 0.0768 (  5231 PWs)   bands (ev):

    -6.0853  -5.3523  -3.7538  -3.7370  -3.7038  -3.6806  -3.6731  -3.5135
    -3.5052  -3.4395  -3.4115  -2.2165   3.1454   7.6559   8.3078   8.3971
     9.3956   9.5054

          k =-0.1250 0.0722-0.2303 (  5226 PWs)   bands (ev):

    -5.8012  -5.4872  -3.7352  -3.7243  -3.7103  -3.6976  -3.5932  -3.4813
    -3.4725  -3.4340  -3.4213  -2.9722   4.7828   6.7868   8.1022   8.7040
     8.7841   9.1621

          k =-0.1250 0.0722-0.0768 (  5231 PWs)   bands (ev):

    -6.0853  -5.3523  -3.7538  -3.7370  -3.7038  -3.6806  -3.6731  -3.5135
    -3.5052  -3.4395  -3.4115  -2.2165   3.1454   7.6559   8.3078   8.3971
     9.3956   9.5054

          k =-0.3750-0.6495-0.0768 (  5197 PWs)   bands (ev):

    -5.2820  -5.2244  -3.7451  -3.6114  -3.5656  -3.5363  -3.5258  -3.4916
    -3.4647  -3.4358  -1.9318  -1.6362   3.7854   4.3474   4.9199   6.5898
     7.0555   7.3671

          k =-0.3750-0.6495 0.0768 (  5197 PWs)   bands (ev):

    -5.2820  -5.2244  -3.7451  -3.6114  -3.5656  -3.5363  -3.5258  -3.4916
    -3.4647  -3.4358  -1.9318  -1.6362   3.7854   4.3474   4.9199   6.5898
     7.0555   7.3671

          k =-0.3750-0.6495-0.2303 (  5202 PWs)   bands (ev):

    -5.2322  -5.2085  -3.6766  -3.6450  -3.6343  -3.5736  -3.4994  -3.4852
    -3.4567  -3.4529  -1.8478  -1.7215   3.4506   3.6693   5.3824   6.2691
     7.8092   8.1808

          k =-0.3750-0.6495-0.0768 (  5197 PWs)   bands (ev):

    -5.2820  -5.2244  -3.7451  -3.6114  -3.5656  -3.5363  -3.5258  -3.4916
    -3.4647  -3.4358  -1.9318  -1.6362   3.7854   4.3474   4.9199   6.5898
     7.0555   7.3671

          k =-0.3750 0.2165-0.0768 (  5211 PWs)   bands (ev):

    -5.4655  -5.2254  -3.7105  -3.6803  -3.6049  -3.5589  -3.5341  -3.4941
    -3.4463  -3.3958  -2.8348  -1.6605   3.5443   4.8052   5.5076   7.2243
     8.2383   8.7676

          k =-0.3750 0.2165 0.0768 (  5211 PWs)   bands (ev):

    -5.4655  -5.2254  -3.7105  -3.6803  -3.6049  -3.5589  -3.5341  -3.4941
    -3.4463  -3.3958  -2.8348  -1.6605   3.5443   4.8052   5.5076   7.2243
     8.2383   8.7676

          k =-0.3750 0.2165-0.2303 (  5197 PWs)   bands (ev):

    -5.3503  -5.2515  -3.7165  -3.6743  -3.6349  -3.5728  -3.5251  -3.4826
    -3.4367  -3.4168  -2.6029  -2.1294   3.5526   4.1568   6.8994   7.6326
     8.2226   8.2659

          k =-0.3750 0.2165-0.0768 (  5211 PWs)   bands (ev):

    -5.4655  -5.2254  -3.7105  -3.6803  -3.6049  -3.5589  -3.5341  -3.4941
    -3.4463  -3.3958  -2.8348  -1.6605   3.5443   4.8052   5.5076   7.2243
     8.2383   8.7676

     highest occupied level (ev):     9.5054

     Writing config to output data dir out_GaN/_ph0/GaN.save/

     phonon ph.x                                                                

     bravais-lattice index     =            4
     lattice parameter (alat)  =       6.0262  a.u.
     unit-cell volume          =     308.5900 (a.u.)^3
     number of atoms/cell      =            4
     number of atomic types    =            2
     kinetic-energy cut-off    =     100.0000  Ry
     charge density cut-off    =     400.0000  Ry
     convergence threshold     =      1.0E-14
     beta                      =       0.7000
     number of iterations used =            4
     Exchange-correlation= PBE
                           (   1   4   3   4   0   0   0)


     celldm(1)=    6.02621  celldm(2)=    0.00000  celldm(3)=    1.62824
     celldm(4)=    0.00000  celldm(5)=    0.00000  celldm(6)=    0.00000

     crystal axes: (cart. coord. in units of alat)
               a(1) = (  1.0000  0.0000  0.0000 )  
               a(2) = ( -0.5000  0.8660  0.0000 )  
               a(3) = (  0.0000  0.0000  1.6282 )  

     reciprocal axes: (cart. coord. in units 2 pi/alat)
               b(1) = (  1.0000  0.5774  0.0000 )  
               b(2) = (  0.0000  1.1547  0.0000 )  
               b(3) = (  0.0000  0.0000  0.6142 )  


     Atoms inside the unit cell: 

     Cartesian axes

     site n.  atom      mass           positions (alat units)
        1     Ga  69.7230   tau(    1) = (    0.50000    0.28868    0.81263  )
        2     Ga  69.7230   tau(    2) = (   -0.00000    0.57735    1.62675  )
        3     N   14.0065   tau(    3) = (    0.50000    0.28868    1.42621  )
        4     N   14.0065   tau(    4) = (   -0.00000    0.57735    0.61208  )

     Computing dynamical matrix for 
                    q = (   0.0000000   0.0000000   0.1535396 )
 
     12 Sym.Ops. (no q -> -q+G )


     G cutoff =  367.9494  (   1312 G-vectors)     FFT grid: ( 40, 40, 64)
     number of k points=    48

     PseudoPot. # 1 for Ga read from file:
     /home/ee5/local/espresso/pseudo/Ga.pbe-dn-kjpaw_psl.1.0.0.UPF
     MD5 check sum: 9ec968fb6aa164ad922e5aaa76dd79f0
     Pseudo is Projector augmented-wave + core cor, Zval = 13.0
     Generated using &quot;atomic&quot; code by A. Dal Corso  v.6.3
     Shape of augmentation charge: PSQ
     Using radial grid of 1205 points,  6 beta functions with: 
                l(1) =   0
                l(2) =   0
                l(3) =   1
                l(4) =   1
                l(5) =   2
                l(6) =   2
     Q(r) pseudized with 0 coefficients 


     PseudoPot. # 2 for N  read from file:
     /home/ee5/local/espresso/pseudo/N.pbe-n-kjpaw_psl.1.0.0.UPF
     MD5 check sum: c8d345807381b1d4df424700dd57e850
     Pseudo is Projector augmented-wave + core cor, Zval =  5.0
     Generated using &quot;atomic&quot; code by A. Dal Corso  v.6.3
     Shape of augmentation charge: PSQ
     Using radial grid of 1085 points,  4 beta functions with: 
                l(1) =   0
                l(2) =   0
                l(3) =   1
                l(4) =   1
     Q(r) pseudized with 0 coefficients 


     Mode symmetry, C_6v (6mm)  point group:


     Atomic displacements:
     There are    8 irreducible representations

     Representation     1      1 modes -  To be done

     Representation     2      1 modes -  To be done

     Representation     3      1 modes -  To be done

     Representation     4      1 modes -  To be done

     Representation     5      2 modes -  To be done

     Representation     6      2 modes -  To be done

     Representation     7      2 modes -  To be done

     Representation     8      2 modes -  To be done



     Alpha used in Ewald sum =   2.8000
     PHONON       :   1m15.28s CPU   1m27.21s WALL



     Representation #   1 mode #   1

     Self-consistent Calculation

      iter #   1 total cpu time :    88.0 secs   av.it.:   9.3
      thresh= 1.000E-02 alpha_mix =  0.700 |ddv_scf|^2 =  1.131E-03

      iter #   2 total cpu time :    89.1 secs   av.it.:  14.4
      thresh= 3.363E-03 alpha_mix =  0.700 |ddv_scf|^2 =  8.979E-03

      iter #   3 total cpu time :    89.9 secs   av.it.:  11.9
      thresh= 9.476E-03 alpha_mix =  0.700 |ddv_scf|^2 =  2.205E-07

      iter #   4 total cpu time :    91.4 secs   av.it.:  17.5
      thresh= 4.696E-05 alpha_mix =  0.700 |ddv_scf|^2 =  7.941E-07

      iter #   5 total cpu time :    92.5 secs   av.it.:  14.8
      thresh= 8.911E-05 alpha_mix =  0.700 |ddv_scf|^2 =  3.814E-10

      iter #   6 total cpu time :    93.7 secs   av.it.:  19.5
      thresh= 1.953E-06 alpha_mix =  0.700 |ddv_scf|^2 =  1.562E-10

      iter #   7 total cpu time :    94.6 secs   av.it.:  14.2
      thresh= 1.250E-06 alpha_mix =  0.700 |ddv_scf|^2 =  6.692E-11

      iter #   8 total cpu time :    95.6 secs   av.it.:  16.8
      thresh= 8.181E-07 alpha_mix =  0.700 |ddv_scf|^2 =  2.067E-11

      iter #   9 total cpu time :    96.6 secs   av.it.:  14.7
      thresh= 4.546E-07 alpha_mix =  0.700 |ddv_scf|^2 =  1.150E-11

      iter #  10 total cpu time :    97.6 secs   av.it.:  15.2
      thresh= 3.391E-07 alpha_mix =  0.700 |ddv_scf|^2 =  5.778E-13

      iter #  11 total cpu time :    98.6 secs   av.it.:  17.2
      thresh= 7.601E-08 alpha_mix =  0.700 |ddv_scf|^2 =  4.245E-14

      iter #  12 total cpu time :    99.6 secs   av.it.:  18.0
      thresh= 2.060E-08 alpha_mix =  0.700 |ddv_scf|^2 =  6.340E-15

     End of self-consistent calculation

     Convergence has been achieved 


     Representation #   2 mode #   2

     Self-consistent Calculation

      iter #   1 total cpu time :   100.6 secs   av.it.:  12.6
      thresh= 1.000E-02 alpha_mix =  0.700 |ddv_scf|^2 =  4.527E-03

      iter #   2 total cpu time :   101.6 secs   av.it.:  14.3
      thresh= 6.728E-03 alpha_mix =  0.700 |ddv_scf|^2 =  3.340E-02

      iter #   3 total cpu time :   102.5 secs   av.it.:  13.5
      thresh= 1.000E-02 alpha_mix =  0.700 |ddv_scf|^2 =  2.768E-05

      iter #   4 total cpu time :   103.5 secs   av.it.:  14.6
      thresh= 5.261E-04 alpha_mix =  0.700 |ddv_scf|^2 =  2.028E-07

      iter #   5 total cpu time :   104.6 secs   av.it.:  17.2
      thresh= 4.503E-05 alpha_mix =  0.700 |ddv_scf|^2 =  7.157E-07

      iter #   6 total cpu time :   105.5 secs   av.it.:  14.8
      thresh= 8.460E-05 alpha_mix =  0.700 |ddv_scf|^2 =  4.934E-09

      iter #   7 total cpu time :   106.6 secs   av.it.:  19.8
      thresh= 7.024E-06 alpha_mix =  0.700 |ddv_scf|^2 =  2.364E-08

      iter #   8 total cpu time :   107.5 secs   av.it.:  14.1
      thresh= 1.537E-05 alpha_mix =  0.700 |ddv_scf|^2 =  1.461E-09

      iter #   9 total cpu time :   108.6 secs   av.it.:  17.6
      thresh= 3.822E-06 alpha_mix =  0.700 |ddv_scf|^2 =  1.160E-10

      iter #  10 total cpu time :   109.6 secs   av.it.:  17.3
      thresh= 1.077E-06 alpha_mix =  0.700 |ddv_scf|^2 =  1.247E-10

      iter #  11 total cpu time :   110.6 secs   av.it.:  14.3
      thresh= 1.117E-06 alpha_mix =  0.700 |ddv_scf|^2 =  1.695E-12

      iter #  12 total cpu time :   111.6 secs   av.it.:  17.8
      thresh= 1.302E-07 alpha_mix =  0.700 |ddv_scf|^2 =  2.652E-13

      iter #  13 total cpu time :   112.5 secs   av.it.:  15.0
      thresh= 5.150E-08 alpha_mix =  0.700 |ddv_scf|^2 =  1.080E-14

      iter #  14 total cpu time :   113.6 secs   av.it.:  15.9
      thresh= 1.039E-08 alpha_mix =  0.700 |ddv_scf|^2 =  3.437E-15

     End of self-consistent calculation

     Convergence has been achieved 


     Representation #   3 mode #   3

     Self-consistent Calculation

      iter #   1 total cpu time :   114.6 secs   av.it.:  12.5
      thresh= 1.000E-02 alpha_mix =  0.700 |ddv_scf|^2 =  1.718E-04

      iter #   2 total cpu time :   115.5 secs   av.it.:  16.8
      thresh= 1.311E-03 alpha_mix =  0.700 |ddv_scf|^2 =  2.861E-04

      iter #   3 total cpu time :   116.5 secs   av.it.:  15.4
      thresh= 1.691E-03 alpha_mix =  0.700 |ddv_scf|^2 =  8.613E-06

      iter #   4 total cpu time :   117.4 secs   av.it.:  16.0
      thresh= 2.935E-04 alpha_mix =  0.700 |ddv_scf|^2 =  5.006E-07

      iter #   5 total cpu time :   118.4 secs   av.it.:  17.1
      thresh= 7.075E-05 alpha_mix =  0.700 |ddv_scf|^2 =  8.302E-08

      iter #   6 total cpu time :   119.3 secs   av.it.:  19.0
      thresh= 2.881E-05 alpha_mix =  0.700 |ddv_scf|^2 =  1.046E-08

      iter #   7 total cpu time :   120.1 secs   av.it.:  20.2
      thresh= 1.023E-05 alpha_mix =  0.700 |ddv_scf|^2 =  1.737E-09

      iter #   8 total cpu time :   121.3 secs   av.it.:  18.8
      thresh= 4.168E-06 alpha_mix =  0.700 |ddv_scf|^2 =  1.110E-11

      iter #   9 total cpu time :   122.3 secs   av.it.:  18.8
      thresh= 3.332E-07 alpha_mix =  0.700 |ddv_scf|^2 =  5.800E-13

      iter #  10 total cpu time :   123.2 secs   av.it.:  16.0
      thresh= 7.616E-08 alpha_mix =  0.700 |ddv_scf|^2 =  5.166E-14

      iter #  11 total cpu time :   124.3 secs   av.it.:  18.9
      thresh= 2.273E-08 alpha_mix =  0.700 |ddv_scf|^2 =  2.828E-15

     End of self-consistent calculation

     Convergence has been achieved 


     Representation #   4 mode #   4

     Self-consistent Calculation

      iter #   1 total cpu time :   125.1 secs   av.it.:   8.7
      thresh= 1.000E-02 alpha_mix =  0.700 |ddv_scf|^2 =  4.179E-05

      iter #   2 total cpu time :   126.0 secs   av.it.:  16.8
      thresh= 6.464E-04 alpha_mix =  0.700 |ddv_scf|^2 =  7.738E-05

      iter #   3 total cpu time :   127.0 secs   av.it.:  15.1
      thresh= 8.797E-04 alpha_mix =  0.700 |ddv_scf|^2 =  6.931E-07

      iter #   4 total cpu time :   128.1 secs   av.it.:  16.2
      thresh= 8.325E-05 alpha_mix =  0.700 |ddv_scf|^2 =  4.945E-08

      iter #   5 total cpu time :   129.1 secs   av.it.:  17.4
      thresh= 2.224E-05 alpha_mix =  0.700 |ddv_scf|^2 =  7.689E-10

      iter #   6 total cpu time :   130.3 secs   av.it.:  19.8
      thresh= 2.773E-06 alpha_mix =  0.700 |ddv_scf|^2 =  6.973E-11

      iter #   7 total cpu time :   131.3 secs   av.it.:  17.7
      thresh= 8.351E-07 alpha_mix =  0.700 |ddv_scf|^2 =  6.087E-12

      iter #   8 total cpu time :   132.3 secs   av.it.:  15.7
      thresh= 2.467E-07 alpha_mix =  0.700 |ddv_scf|^2 =  5.774E-14

      iter #   9 total cpu time :   133.2 secs   av.it.:  18.2
      thresh= 2.403E-08 alpha_mix =  0.700 |ddv_scf|^2 =  3.267E-14

      iter #  10 total cpu time :   134.1 secs   av.it.:  16.0
      thresh= 1.808E-08 alpha_mix =  0.700 |ddv_scf|^2 =  1.323E-15

     End of self-consistent calculation

     Convergence has been achieved 


     Representation #   5 modes #   5   6

     Self-consistent Calculation

      iter #   1 total cpu time :   135.4 secs   av.it.:   8.8
      thresh= 1.000E-02 alpha_mix =  0.700 |ddv_scf|^2 =  2.642E-07

      iter #   2 total cpu time :   137.3 secs   av.it.:  19.4
      thresh= 5.140E-05 alpha_mix =  0.700 |ddv_scf|^2 =  2.756E-09

      iter #   3 total cpu time :   139.4 secs   av.it.:  19.4
      thresh= 5.250E-06 alpha_mix =  0.700 |ddv_scf|^2 =  3.538E-11

      iter #   4 total cpu time :   141.5 secs   av.it.:  18.7
      thresh= 5.948E-07 alpha_mix =  0.700 |ddv_scf|^2 =  3.599E-13

      iter #   5 total cpu time :   143.6 secs   av.it.:  19.9
      thresh= 5.999E-08 alpha_mix =  0.700 |ddv_scf|^2 =  3.891E-15

     End of self-consistent calculation

     Convergence has been achieved 


     Representation #   6 modes #   7   8

     Self-consistent Calculation

      iter #   1 total cpu time :   145.4 secs   av.it.:  12.8
      thresh= 1.000E-02 alpha_mix =  0.700 |ddv_scf|^2 =  2.846E-06

      iter #   2 total cpu time :   147.4 secs   av.it.:  20.1
      thresh= 1.687E-04 alpha_mix =  0.700 |ddv_scf|^2 =  6.050E-08

      iter #   3 total cpu time :   149.7 secs   av.it.:  22.5
      thresh= 2.460E-05 alpha_mix =  0.700 |ddv_scf|^2 =  1.859E-08

      iter #   4 total cpu time :   151.9 secs   av.it.:  20.6
      thresh= 1.363E-05 alpha_mix =  0.700 |ddv_scf|^2 =  1.057E-10

      iter #   5 total cpu time :   154.1 secs   av.it.:  21.1
      thresh= 1.028E-06 alpha_mix =  0.700 |ddv_scf|^2 =  2.942E-12

      iter #   6 total cpu time :   156.4 secs   av.it.:  22.1
      thresh= 1.715E-07 alpha_mix =  0.700 |ddv_scf|^2 =  2.715E-13

      iter #   7 total cpu time :   158.5 secs   av.it.:  21.1
      thresh= 5.211E-08 alpha_mix =  0.700 |ddv_scf|^2 =  1.874E-15

     End of self-consistent calculation

     Convergence has been achieved 


     Representation #   7 modes #   9  10

     Self-consistent Calculation

      iter #   1 total cpu time :   160.4 secs   av.it.:  13.0
      thresh= 1.000E-02 alpha_mix =  0.700 |ddv_scf|^2 =  3.037E-06

      iter #   2 total cpu time :   162.6 secs   av.it.:  19.9
      thresh= 1.743E-04 alpha_mix =  0.700 |ddv_scf|^2 =  5.114E-08

      iter #   3 total cpu time :   164.8 secs   av.it.:  22.8
      thresh= 2.261E-05 alpha_mix =  0.700 |ddv_scf|^2 =  1.890E-08

      iter #   4 total cpu time :   166.7 secs   av.it.:  20.4
      thresh= 1.375E-05 alpha_mix =  0.700 |ddv_scf|^2 =  1.283E-10

      iter #   5 total cpu time :   168.6 secs   av.it.:  19.9
      thresh= 1.133E-06 alpha_mix =  0.700 |ddv_scf|^2 =  4.169E-12

      iter #   6 total cpu time :   170.6 secs   av.it.:  22.3
      thresh= 2.042E-07 alpha_mix =  0.700 |ddv_scf|^2 =  3.193E-13

      iter #   7 total cpu time :   172.7 secs   av.it.:  21.0
      thresh= 5.651E-08 alpha_mix =  0.700 |ddv_scf|^2 =  2.562E-15

     End of self-consistent calculation

     Convergence has been achieved 


     Representation #   8 modes #  11  12

     Self-consistent Calculation

      iter #   1 total cpu time :   174.0 secs   av.it.:   8.9
      thresh= 1.000E-02 alpha_mix =  0.700 |ddv_scf|^2 =  3.000E-07

      iter #   2 total cpu time :   176.0 secs   av.it.:  19.4
      thresh= 5.478E-05 alpha_mix =  0.700 |ddv_scf|^2 =  4.231E-09

      iter #   3 total cpu time :   177.9 secs   av.it.:  19.6
      thresh= 6.505E-06 alpha_mix =  0.700 |ddv_scf|^2 =  3.728E-11

      iter #   4 total cpu time :   179.9 secs   av.it.:  18.7
      thresh= 6.106E-07 alpha_mix =  0.700 |ddv_scf|^2 =  3.913E-13

      iter #   5 total cpu time :   181.7 secs   av.it.:  19.3
      thresh= 6.256E-08 alpha_mix =  0.700 |ddv_scf|^2 =  5.713E-15

     End of self-consistent calculation

     Convergence has been achieved 
 
     Number of q in the star =    1
     List of q in the star:
          1   0.000000000   0.000000000   0.153539628
     In addition there is the -q list: 
          1   0.000000000   0.000000000  -0.153539628

     Diagonalizing the dynamical matrix

     q = (    0.000000000   0.000000000   0.153539628 ) 

 **************************************************************************
     freq (    1) =       2.128906 [THz] =      71.012644 [cm-1]
     freq (    2) =       2.128906 [THz] =      71.012644 [cm-1]
     freq (    3) =       3.846106 [THz] =     128.292272 [cm-1]
     freq (    4) =       4.024483 [THz] =     134.242317 [cm-1]
     freq (    5) =       4.024483 [THz] =     134.242317 [cm-1]
     freq (    6) =       9.163130 [THz] =     305.649131 [cm-1]
     freq (    7) =      16.546465 [THz] =     551.930674 [cm-1]
     freq (    8) =      16.546465 [THz] =     551.930674 [cm-1]
     freq (    9) =      16.757518 [THz] =     558.970619 [cm-1]
     freq (   10) =      16.757518 [THz] =     558.970619 [cm-1]
     freq (   11) =      20.685194 [THz] =     689.983803 [cm-1]
     freq (   12) =      21.482710 [THz] =     716.586078 [cm-1]
 **************************************************************************

     Mode symmetry, C_6v (6mm)  point group:

     freq (   1-   2) =         71.0  [cm-1]   --> E_1                
     freq (   3-   3) =        128.3  [cm-1]   --> A_1                
     freq (   4-   5) =        134.2  [cm-1]   --> E_2                
     freq (   6-   6) =        305.6  [cm-1]   --> B_1                
     freq (   7-   8) =        551.9  [cm-1]   --> E_1                
     freq (   9-  10) =        559.0  [cm-1]   --> E_2                
     freq (  11-  11) =        690.0  [cm-1]   --> B_1                
     freq (  12-  12) =        716.6  [cm-1]   --> A_1                

     Calculation of q =    0.0000000   0.0000000  -0.3070793
 
     Parallelization info
     --------------------
     sticks:   dense  smooth     PW     G-vecs:    dense   smooth      PW
     Min          31      31      9                 1305     1305     205
     Max          32      32     10                 1312     1312     210
     Sum        1003    1003    295                41829    41829    6627
 
     Using Slab Decomposition
 

     Title: 
     phonon ph.x                                                                


     bravais-lattice index     =            4
     lattice parameter (alat)  =       6.0262  a.u.
     unit-cell volume          =     308.5900 (a.u.)^3
     number of atoms/cell      =            4
     number of atomic types    =            2
     number of electrons       =        36.00
     number of Kohn-Sham states=           18
     kinetic-energy cutoff     =     100.0000  Ry
     charge density cutoff     =     400.0000  Ry
     Exchange-correlation= PBE
                           (   1   4   3   4   0   0   0)

     celldm(1)=   6.026205  celldm(2)=   0.000000  celldm(3)=   1.628244
     celldm(4)=   0.000000  celldm(5)=   0.000000  celldm(6)=   0.000000

     crystal axes: (cart. coord. in units of alat)
               a(1) = (   1.000000   0.000000   0.000000 )  
               a(2) = (  -0.500000   0.866025   0.000000 )  
               a(3) = (   0.000000   0.000000   1.628244 )  

     reciprocal axes: (cart. coord. in units 2 pi/alat)
               b(1) = (  1.000000  0.577350  0.000000 )  
               b(2) = (  0.000000  1.154701  0.000000 )  
               b(3) = (  0.000000  0.000000  0.614159 )  


     PseudoPot. # 1 for Ga read from file:
     /home/ee5/local/espresso/pseudo/Ga.pbe-dn-kjpaw_psl.1.0.0.UPF
     MD5 check sum: 9ec968fb6aa164ad922e5aaa76dd79f0
     Pseudo is Projector augmented-wave + core cor, Zval = 13.0
     Generated using &quot;atomic&quot; code by A. Dal Corso  v.6.3
     Shape of augmentation charge: PSQ
     Using radial grid of 1205 points,  6 beta functions with: 
                l(1) =   0
                l(2) =   0
                l(3) =   1
                l(4) =   1
                l(5) =   2
                l(6) =   2
     Q(r) pseudized with 0 coefficients 


     PseudoPot. # 2 for N  read from file:
     /home/ee5/local/espresso/pseudo/N.pbe-n-kjpaw_psl.1.0.0.UPF
     MD5 check sum: c8d345807381b1d4df424700dd57e850
     Pseudo is Projector augmented-wave + core cor, Zval =  5.0
     Generated using &quot;atomic&quot; code by A. Dal Corso  v.6.3
     Shape of augmentation charge: PSQ
     Using radial grid of 1085 points,  4 beta functions with: 
                l(1) =   0
                l(2) =   0
                l(3) =   1
                l(4) =   1
     Q(r) pseudized with 0 coefficients 


     atomic species   valence    mass     pseudopotential
        Ga            13.00    69.72300     Ga( 1.00)
        N              5.00    14.00650     N ( 1.00)

     12 Sym. Ops. (no inversion) found



   Cartesian axes

     site n.     atom                  positions (alat units)
         1           Ga  tau(   1) = (   0.5000000   0.2886751   0.8126301  )
         2           Ga  tau(   2) = (  -0.0000000   0.5773503   1.6267522  )
         3           N   tau(   3) = (   0.5000000   0.2886751   1.4262056  )
         4           N   tau(   4) = (  -0.0000000   0.5773503   0.6120835  )

     number of k points=    24
                       cart. coord. in units 2pi/alat
        k(    1) = (   0.1250000   0.2165064   0.0767698), wk =   0.1250000
        k(    2) = (   0.1250000   0.2165064  -0.2303094), wk =   0.0000000
        k(    3) = (   0.1250000   0.2165064   0.2303094), wk =   0.1250000
        k(    4) = (   0.1250000   0.2165064  -0.0767698), wk =   0.0000000
        k(    5) = (   0.1250000   0.5051815   0.0767698), wk =   0.2500000
        k(    6) = (   0.1250000   0.5051815  -0.2303094), wk =   0.0000000
        k(    7) = (   0.1250000   0.5051815   0.2303094), wk =   0.2500000
        k(    8) = (   0.1250000   0.5051815  -0.0767698), wk =   0.0000000
        k(    9) = (   0.1250000  -0.3608439   0.0767698), wk =   0.2500000
        k(   10) = (   0.1250000  -0.3608439  -0.2303094), wk =   0.0000000
        k(   11) = (   0.1250000  -0.3608439   0.2303094), wk =   0.2500000
        k(   12) = (   0.1250000  -0.3608439  -0.0767698), wk =   0.0000000
        k(   13) = (   0.1250000  -0.0721688   0.0767698), wk =   0.1250000
        k(   14) = (   0.1250000  -0.0721688  -0.2303094), wk =   0.0000000
        k(   15) = (   0.1250000  -0.0721688   0.2303094), wk =   0.1250000
        k(   16) = (   0.1250000  -0.0721688  -0.0767698), wk =   0.0000000
        k(   17) = (   0.3750000   0.6495191   0.0767698), wk =   0.1250000
        k(   18) = (   0.3750000   0.6495191  -0.2303094), wk =   0.0000000
        k(   19) = (   0.3750000   0.6495191   0.2303094), wk =   0.1250000
        k(   20) = (   0.3750000   0.6495191  -0.0767698), wk =   0.0000000
        k(   21) = (   0.3750000  -0.2165064   0.0767698), wk =   0.1250000
        k(   22) = (   0.3750000  -0.2165064  -0.2303094), wk =   0.0000000
        k(   23) = (   0.3750000  -0.2165064   0.2303094), wk =   0.1250000
        k(   24) = (   0.3750000  -0.2165064  -0.0767698), wk =   0.0000000

     Dense  grid:    41829 G-vectors     FFT dimensions: (  40,  40,  64)

     Estimated max dynamical RAM per process >       5.15 MB

     Estimated total dynamical RAM >     494.57 MB

     Check: negative core charge=   -0.000001

     The potential is recalculated from file :
     out_GaN/_ph0/GaN.save/charge-density

     Starting wfcs are   26 atomic wfcs
     Checking if some PAW data can be deallocated... 

     Band Structure Calculation
     Davidson diagonalization with overlap

     ethr =  2.78E-11,  avg # of iterations = 24.2

     total cpu time spent up to now is        4.1 secs

     End of band structure calculation

          k = 0.1250 0.2165 0.0768 (  5227 PWs)   bands (ev):

    -5.8444  -5.2949  -3.7212  -3.7123  -3.6556  -3.6450  -3.5606  -3.5040
    -3.5036  -3.4676  -3.3966  -2.0099   3.5008   6.5341   6.9063   7.9207
     9.0604   9.1487

          k = 0.1250 0.2165-0.2303 (  5216 PWs)   bands (ev):

    -5.6159  -5.3846  -3.7083  -3.6910  -3.6776  -3.6615  -3.5624  -3.5234
    -3.4616  -3.4396  -3.2631  -2.7272   4.7542   6.0846   7.2483   8.0418
     8.5086   8.6299

          k = 0.1250 0.2165 0.2303 (  5216 PWs)   bands (ev):

    -5.6159  -5.3846  -3.7083  -3.6910  -3.6776  -3.6615  -3.5624  -3.5234
    -3.4616  -3.4396  -3.2631  -2.7272   4.7542   6.0846   7.2483   8.0418
     8.5086   8.6299

          k = 0.1250 0.2165-0.0768 (  5227 PWs)   bands (ev):

    -5.8444  -5.2949  -3.7212  -3.7123  -3.6556  -3.6450  -3.5606  -3.5040
    -3.5036  -3.4676  -3.3966  -2.0099   3.5008   6.5341   6.9063   7.9207
     9.0604   9.1487

          k = 0.1250 0.5052 0.0768 (  5209 PWs)   bands (ev):

    -5.3647  -5.2150  -3.7168  -3.6733  -3.5808  -3.5537  -3.5243  -3.4863
    -3.4361  -3.4087  -2.3707  -1.6260   3.4044   4.4425   5.7038   6.4796
     7.7900   8.1061

          k = 0.1250 0.5052-0.2303 (  5208 PWs)   bands (ev):

    -5.2837  -5.2220  -3.7015  -3.6651  -3.6401  -3.5660  -3.5140  -3.4770
    -3.4310  -3.4228  -2.2006  -1.8897   3.2379   3.6933   6.5569   7.3431
     7.4972   8.2986

          k = 0.1250 0.5052 0.2303 (  5208 PWs)   bands (ev):

    -5.2837  -5.2220  -3.7015  -3.6651  -3.6401  -3.5660  -3.5140  -3.4770
    -3.4310  -3.4228  -2.2006  -1.8897   3.2379   3.6933   6.5569   7.3431
     7.4972   8.2986

          k = 0.1250 0.5052-0.0768 (  5209 PWs)   bands (ev):

    -5.3647  -5.2150  -3.7168  -3.6733  -3.5808  -3.5537  -3.5243  -3.4863
    -3.4361  -3.4087  -2.3707  -1.6260   3.4044   4.4425   5.7038   6.4796
     7.7900   8.1061

          k = 0.1250-0.3608 0.0768 (  5215 PWs)   bands (ev):

    -5.5389  -5.2377  -3.7061  -3.6848  -3.6106  -3.5775  -3.5389  -3.5086
    -3.4601  -3.4207  -3.0632  -1.7010   3.8372   5.2367   5.7531   6.9542
     8.4426   8.6090

          k = 0.1250-0.3608-0.2303 (  5203 PWs)   bands (ev):

    -5.3988  -5.2748  -3.6921  -3.6674  -3.6460  -3.6059  -3.5383  -3.5215
    -3.4423  -3.4317  -2.8151  -2.2793   4.1163   4.7947   6.8514   7.3065
     7.8726   8.4128

          k = 0.1250-0.3608 0.2303 (  5203 PWs)   bands (ev):

    -5.3988  -5.2748  -3.6921  -3.6674  -3.6460  -3.6059  -3.5383  -3.5215
    -3.4423  -3.4317  -2.8151  -2.2793   4.1163   4.7947   6.8514   7.3065
     7.8726   8.4128

          k = 0.1250-0.3608-0.0768 (  5215 PWs)   bands (ev):

    -5.5389  -5.2377  -3.7061  -3.6848  -3.6106  -3.5775  -3.5389  -3.5086
    -3.4601  -3.4207  -3.0632  -1.7010   3.8372   5.2367   5.7531   6.9542
     8.4426   8.6090

          k = 0.1250-0.0722 0.0768 (  5231 PWs)   bands (ev):

    -6.0853  -5.3523  -3.7538  -3.7370  -3.7038  -3.6806  -3.6731  -3.5135
    -3.5052  -3.4395  -3.4115  -2.2165   3.1454   7.6559   8.3078   8.3971
     9.3956   9.5054

          k = 0.1250-0.0722-0.2303 (  5226 PWs)   bands (ev):

    -5.8012  -5.4872  -3.7352  -3.7243  -3.7103  -3.6976  -3.5932  -3.4813
    -3.4725  -3.4340  -3.4213  -2.9722   4.7828   6.7868   8.1022   8.7040
     8.7841   9.1621

          k = 0.1250-0.0722 0.2303 (  5226 PWs)   bands (ev):

    -5.8012  -5.4872  -3.7352  -3.7243  -3.7103  -3.6976  -3.5932  -3.4813
    -3.4725  -3.4340  -3.4213  -2.9722   4.7828   6.7868   8.1022   8.7040
     8.7841   9.1621

          k = 0.1250-0.0722-0.0768 (  5231 PWs)   bands (ev):

    -6.0853  -5.3523  -3.7538  -3.7370  -3.7038  -3.6806  -3.6731  -3.5135
    -3.5052  -3.4395  -3.4115  -2.2165   3.1454   7.6559   8.3078   8.3971
     9.3956   9.5054

          k = 0.3750 0.6495 0.0768 (  5197 PWs)   bands (ev):

    -5.2820  -5.2244  -3.7451  -3.6114  -3.5656  -3.5363  -3.5258  -3.4916
    -3.4647  -3.4358  -1.9318  -1.6362   3.7854   4.3474   4.9199   6.5898
     7.0555   7.3671

          k = 0.3750 0.6495-0.2303 (  5202 PWs)   bands (ev):

    -5.2322  -5.2085  -3.6766  -3.6450  -3.6343  -3.5736  -3.4994  -3.4852
    -3.4567  -3.4529  -1.8478  -1.7215   3.4506   3.6693   5.3824   6.2691
     7.8092   8.1808

          k = 0.3750 0.6495 0.2303 (  5202 PWs)   bands (ev):

    -5.2322  -5.2085  -3.6766  -3.6450  -3.6343  -3.5736  -3.4994  -3.4852
    -3.4567  -3.4529  -1.8478  -1.7215   3.4506   3.6693   5.3824   6.2691
     7.8092   8.1808

          k = 0.3750 0.6495-0.0768 (  5197 PWs)   bands (ev):

    -5.2820  -5.2244  -3.7451  -3.6114  -3.5656  -3.5363  -3.5258  -3.4916
    -3.4647  -3.4358  -1.9318  -1.6362   3.7854   4.3474   4.9199   6.5898
     7.0555   7.3671

          k = 0.3750-0.2165 0.0768 (  5211 PWs)   bands (ev):

    -5.4655  -5.2254  -3.7105  -3.6803  -3.6049  -3.5589  -3.5341  -3.4941
    -3.4463  -3.3958  -2.8348  -1.6605   3.5443   4.8052   5.5076   7.2243
     8.2383   8.7676

          k = 0.3750-0.2165-0.2303 (  5197 PWs)   bands (ev):

    -5.3503  -5.2515  -3.7165  -3.6743  -3.6349  -3.5728  -3.5251  -3.4826
    -3.4367  -3.4168  -2.6029  -2.1294   3.5526   4.1568   6.8994   7.6326
     8.2226   8.2659

          k = 0.3750-0.2165 0.2303 (  5197 PWs)   bands (ev):

    -5.3503  -5.2515  -3.7165  -3.6743  -3.6349  -3.5728  -3.5251  -3.4826
    -3.4367  -3.4168  -2.6029  -2.1294   3.5526   4.1568   6.8994   7.6326
     8.2226   8.2659

          k = 0.3750-0.2165-0.0768 (  5211 PWs)   bands (ev):

    -5.4655  -5.2254  -3.7105  -3.6803  -3.6049  -3.5589  -3.5341  -3.4941
    -3.4463  -3.3958  -2.8348  -1.6605   3.5443   4.8052   5.5076   7.2243
     8.2383   8.7676

     highest occupied level (ev):     9.5054

     Writing config to output data dir out_GaN/_ph0/GaN.save/

     phonon ph.x                                                                

     bravais-lattice index     =            4
     lattice parameter (alat)  =       6.0262  a.u.
     unit-cell volume          =     308.5900 (a.u.)^3
     number of atoms/cell      =            4
     number of atomic types    =            2
     kinetic-energy cut-off    =     100.0000  Ry
     charge density cut-off    =     400.0000  Ry
     convergence threshold     =      1.0E-14
     beta                      =       0.7000
     number of iterations used =            4
     Exchange-correlation= PBE
                           (   1   4   3   4   0   0   0)


     celldm(1)=    6.02621  celldm(2)=    0.00000  celldm(3)=    1.62824
     celldm(4)=    0.00000  celldm(5)=    0.00000  celldm(6)=    0.00000

     crystal axes: (cart. coord. in units of alat)
               a(1) = (  1.0000  0.0000  0.0000 )  
               a(2) = ( -0.5000  0.8660  0.0000 )  
               a(3) = (  0.0000  0.0000  1.6282 )  

     reciprocal axes: (cart. coord. in units 2 pi/alat)
               b(1) = (  1.0000  0.5774  0.0000 )  
               b(2) = (  0.0000  1.1547  0.0000 )  
               b(3) = (  0.0000  0.0000  0.6142 )  


     Atoms inside the unit cell: 

     Cartesian axes

     site n.  atom      mass           positions (alat units)
        1     Ga  69.7230   tau(    1) = (    0.50000    0.28868    0.81263  )
        2     Ga  69.7230   tau(    2) = (   -0.00000    0.57735    1.62675  )
        3     N   14.0065   tau(    3) = (    0.50000    0.28868    1.42621  )
        4     N   14.0065   tau(    4) = (   -0.00000    0.57735    0.61208  )

     Computing dynamical matrix for 
                    q = (   0.0000000   0.0000000  -0.3070793 )
 
     13 Sym.Ops. (with q -> -q+G )


     G cutoff =  367.9494  (   1312 G-vectors)     FFT grid: ( 40, 40, 64)
     number of k points=    24

     PseudoPot. # 1 for Ga read from file:
     /home/ee5/local/espresso/pseudo/Ga.pbe-dn-kjpaw_psl.1.0.0.UPF
     MD5 check sum: 9ec968fb6aa164ad922e5aaa76dd79f0
     Pseudo is Projector augmented-wave + core cor, Zval = 13.0
     Generated using &quot;atomic&quot; code by A. Dal Corso  v.6.3
     Shape of augmentation charge: PSQ
     Using radial grid of 1205 points,  6 beta functions with: 
                l(1) =   0
                l(2) =   0
                l(3) =   1
                l(4) =   1
                l(5) =   2
                l(6) =   2
     Q(r) pseudized with 0 coefficients 


     PseudoPot. # 2 for N  read from file:
     /home/ee5/local/espresso/pseudo/N.pbe-n-kjpaw_psl.1.0.0.UPF
     MD5 check sum: c8d345807381b1d4df424700dd57e850
     Pseudo is Projector augmented-wave + core cor, Zval =  5.0
     Generated using &quot;atomic&quot; code by A. Dal Corso  v.6.3
     Shape of augmentation charge: PSQ
     Using radial grid of 1085 points,  4 beta functions with: 
                l(1) =   0
                l(2) =   0
                l(3) =   1
                l(4) =   1
     Q(r) pseudized with 0 coefficients 


     Mode symmetry, C_6v (6mm)  point group:


     Atomic displacements:
     There are    4 irreducible representations

     Representation     1      2 modes -  To be done

     Representation     2      2 modes -  To be done

     Representation     3      4 modes -  To be done

     Representation     4      4 modes -  To be done



     Alpha used in Ewald sum =   2.8000
     PHONON       :   2m37.22s CPU   3m 3.77s WALL



     Representation #   1 modes #   1   2

     Self-consistent Calculation

      iter #   1 total cpu time :   185.0 secs   av.it.:  13.1
      thresh= 1.000E-02 alpha_mix =  0.700 |ddv_scf|^2 =  1.639E-04

      iter #   2 total cpu time :   186.4 secs   av.it.:  17.6
      thresh= 1.280E-03 alpha_mix =  0.700 |ddv_scf|^2 =  6.349E-04

      iter #   3 total cpu time :   187.6 secs   av.it.:  15.7
      thresh= 2.520E-03 alpha_mix =  0.700 |ddv_scf|^2 =  2.694E-06

      iter #   4 total cpu time :   188.8 secs   av.it.:  17.7
      thresh= 1.641E-04 alpha_mix =  0.700 |ddv_scf|^2 =  1.676E-07

      iter #   5 total cpu time :   190.1 secs   av.it.:  19.8
      thresh= 4.094E-05 alpha_mix =  0.700 |ddv_scf|^2 =  3.897E-08

      iter #   6 total cpu time :   191.5 secs   av.it.:  20.8
      thresh= 1.974E-05 alpha_mix =  0.700 |ddv_scf|^2 =  2.305E-09

      iter #   7 total cpu time :   192.8 secs   av.it.:  21.5
      thresh= 4.801E-06 alpha_mix =  0.700 |ddv_scf|^2 =  9.005E-10

      iter #   8 total cpu time :   194.1 secs   av.it.:  20.5
      thresh= 3.001E-06 alpha_mix =  0.700 |ddv_scf|^2 =  7.732E-11

      iter #   9 total cpu time :   195.3 secs   av.it.:  19.8
      thresh= 8.793E-07 alpha_mix =  0.700 |ddv_scf|^2 =  2.925E-11

      iter #  10 total cpu time :   196.5 secs   av.it.:  17.8
      thresh= 5.408E-07 alpha_mix =  0.700 |ddv_scf|^2 =  2.325E-12

      iter #  11 total cpu time :   197.7 secs   av.it.:  17.8
      thresh= 1.525E-07 alpha_mix =  0.700 |ddv_scf|^2 =  2.887E-14

      iter #  12 total cpu time :   199.0 secs   av.it.:  21.2
      thresh= 1.699E-08 alpha_mix =  0.700 |ddv_scf|^2 =  9.107E-15

     End of self-consistent calculation

     Convergence has been achieved 


     Representation #   2 modes #   3   4

     Self-consistent Calculation

      iter #   1 total cpu time :   200.1 secs   av.it.:   9.1
      thresh= 1.000E-02 alpha_mix =  0.700 |ddv_scf|^2 =  4.043E-05

      iter #   2 total cpu time :   201.4 secs   av.it.:  17.4
      thresh= 6.358E-04 alpha_mix =  0.700 |ddv_scf|^2 =  1.694E-04

      iter #   3 total cpu time :   202.7 secs   av.it.:  15.5
      thresh= 1.301E-03 alpha_mix =  0.700 |ddv_scf|^2 =  1.365E-07

      iter #   4 total cpu time :   203.9 secs   av.it.:  18.4
      thresh= 3.695E-05 alpha_mix =  0.700 |ddv_scf|^2 =  6.607E-08

      iter #   5 total cpu time :   205.0 secs   av.it.:  18.2
      thresh= 2.570E-05 alpha_mix =  0.700 |ddv_scf|^2 =  1.688E-10

      iter #   6 total cpu time :   206.5 secs   av.it.:  21.1
      thresh= 1.299E-06 alpha_mix =  0.700 |ddv_scf|^2 =  2.343E-11

      iter #   7 total cpu time :   208.0 secs   av.it.:  20.3
      thresh= 4.840E-07 alpha_mix =  0.700 |ddv_scf|^2 =  4.853E-12

      iter #   8 total cpu time :   209.2 secs   av.it.:  16.2
      thresh= 2.203E-07 alpha_mix =  0.700 |ddv_scf|^2 =  1.355E-12

      iter #   9 total cpu time :   210.5 secs   av.it.:  17.5
      thresh= 1.164E-07 alpha_mix =  0.700 |ddv_scf|^2 =  1.090E-13

      iter #  10 total cpu time :   211.9 secs   av.it.:  19.3
      thresh= 3.302E-08 alpha_mix =  0.700 |ddv_scf|^2 =  5.785E-14

      iter #  11 total cpu time :   213.3 secs   av.it.:  19.2
      thresh= 2.405E-08 alpha_mix =  0.700 |ddv_scf|^2 =  7.899E-16

     End of self-consistent calculation

     Convergence has been achieved 


     Representation #   3 modes #   5   6   7   8

     Self-consistent Calculation

      iter #   1 total cpu time :   215.4 secs   av.it.:   8.9
      thresh= 1.000E-02 alpha_mix =  0.700 |ddv_scf|^2 =  7.037E-08

      iter #   2 total cpu time :   218.3 secs   av.it.:  20.8
      thresh= 2.653E-05 alpha_mix =  0.700 |ddv_scf|^2 =  8.515E-10

      iter #   3 total cpu time :   221.4 secs   av.it.:  22.5
      thresh= 2.918E-06 alpha_mix =  0.700 |ddv_scf|^2 =  9.138E-12

      iter #   4 total cpu time :   224.2 secs   av.it.:  20.5
      thresh= 3.023E-07 alpha_mix =  0.700 |ddv_scf|^2 =  9.076E-14

      iter #   5 total cpu time :   227.3 secs   av.it.:  22.1
      thresh= 3.013E-08 alpha_mix =  0.700 |ddv_scf|^2 =  1.198E-15

     End of self-consistent calculation

[...]
      thresh= 5.109E-07 alpha_mix =  0.700 |ddv_scf|^2 =  1.923E-12

      iter #   8 total cpu time :  2904.6 secs   av.it.:  20.4
      thresh= 1.387E-07 alpha_mix =  0.700 |ddv_scf|^2 =  3.672E-14

      iter #   9 total cpu time :  2907.4 secs   av.it.:  20.4
      thresh= 1.916E-08 alpha_mix =  0.700 |ddv_scf|^2 =  3.521E-15

     End of self-consistent calculation

     Convergence has been achieved 


     Representation #   6 mode #   6

     Self-consistent Calculation

      iter #   1 total cpu time :  2909.5 secs   av.it.:  13.2
      thresh= 1.000E-02 alpha_mix =  0.700 |ddv_scf|^2 =  5.069E-05

      iter #   2 total cpu time :  2912.0 secs   av.it.:  18.0
      thresh= 7.119E-04 alpha_mix =  0.700 |ddv_scf|^2 =  4.083E-05

      iter #   3 total cpu time :  2914.5 secs   av.it.:  17.2
      thresh= 6.390E-04 alpha_mix =  0.700 |ddv_scf|^2 =  8.076E-06

      iter #   4 total cpu time :  2916.9 secs   av.it.:  16.6
      thresh= 2.842E-04 alpha_mix =  0.700 |ddv_scf|^2 =  2.280E-07

      iter #   5 total cpu time :  2919.4 secs   av.it.:  18.3
      thresh= 4.775E-05 alpha_mix =  0.700 |ddv_scf|^2 =  5.567E-08

      iter #   6 total cpu time :  2922.0 secs   av.it.:  19.8
      thresh= 2.359E-05 alpha_mix =  0.700 |ddv_scf|^2 =  8.131E-09

      iter #   7 total cpu time :  2924.8 secs   av.it.:  21.1
      thresh= 9.017E-06 alpha_mix =  0.700 |ddv_scf|^2 =  9.071E-10

      iter #   8 total cpu time :  2927.5 secs   av.it.:  20.5
      thresh= 3.012E-06 alpha_mix =  0.700 |ddv_scf|^2 =  9.963E-12

      iter #   9 total cpu time :  2930.3 secs   av.it.:  21.2
      thresh= 3.156E-07 alpha_mix =  0.700 |ddv_scf|^2 =  2.886E-13

      iter #  10 total cpu time :  2933.1 secs   av.it.:  21.1
      thresh= 5.372E-08 alpha_mix =  0.700 |ddv_scf|^2 =  1.474E-13

      iter #  11 total cpu time :  2935.5 secs   av.it.:  16.7
      thresh= 3.839E-08 alpha_mix =  0.700 |ddv_scf|^2 =  1.240E-14

      iter #  12 total cpu time :  2938.0 secs   av.it.:  18.8
      thresh= 1.113E-08 alpha_mix =  0.700 |ddv_scf|^2 =  8.013E-16

     End of self-consistent calculation

     Convergence has been achieved 


     Representation #   7 mode #   7

     Self-consistent Calculation

      iter #   1 total cpu time :  2939.7 secs   av.it.:   9.0
      thresh= 1.000E-02 alpha_mix =  0.700 |ddv_scf|^2 =  1.029E-05

      iter #   2 total cpu time :  2942.2 secs   av.it.:  17.9
      thresh= 3.208E-04 alpha_mix =  0.700 |ddv_scf|^2 =  8.194E-06

      iter #   3 total cpu time :  2944.6 secs   av.it.:  16.9
      thresh= 2.863E-04 alpha_mix =  0.700 |ddv_scf|^2 =  3.757E-07

      iter #   4 total cpu time :  2947.1 secs   av.it.:  16.9
      thresh= 6.129E-05 alpha_mix =  0.700 |ddv_scf|^2 =  3.296E-08

      iter #   5 total cpu time :  2949.6 secs   av.it.:  18.7
      thresh= 1.816E-05 alpha_mix =  0.700 |ddv_scf|^2 =  3.917E-10

      iter #   6 total cpu time :  2952.4 secs   av.it.:  20.7
      thresh= 1.979E-06 alpha_mix =  0.700 |ddv_scf|^2 =  2.381E-11

      iter #   7 total cpu time :  2955.2 secs   av.it.:  20.8
      thresh= 4.879E-07 alpha_mix =  0.700 |ddv_scf|^2 =  1.709E-12

      iter #   8 total cpu time :  2958.0 secs   av.it.:  20.2
      thresh= 1.307E-07 alpha_mix =  0.700 |ddv_scf|^2 =  4.281E-14

      iter #   9 total cpu time :  2960.6 secs   av.it.:  18.9
      thresh= 2.069E-08 alpha_mix =  0.700 |ddv_scf|^2 =  3.748E-15

     End of self-consistent calculation

     Convergence has been achieved 


     Representation #   8 mode #   8

     Self-consistent Calculation

      iter #   1 total cpu time :  2962.7 secs   av.it.:  13.1
      thresh= 1.000E-02 alpha_mix =  0.700 |ddv_scf|^2 =  4.630E-05

      iter #   2 total cpu time :  2965.2 secs   av.it.:  18.0
      thresh= 6.804E-04 alpha_mix =  0.700 |ddv_scf|^2 =  3.672E-05

      iter #   3 total cpu time :  2967.7 secs   av.it.:  17.2
      thresh= 6.060E-04 alpha_mix =  0.700 |ddv_scf|^2 =  7.442E-06

      iter #   4 total cpu time :  2970.1 secs   av.it.:  16.6
      thresh= 2.728E-04 alpha_mix =  0.700 |ddv_scf|^2 =  2.004E-07

      iter #   5 total cpu time :  2972.6 secs   av.it.:  18.1
      thresh= 4.477E-05 alpha_mix =  0.700 |ddv_scf|^2 =  5.033E-08

      iter #   6 total cpu time :  2975.3 secs   av.it.:  19.9
      thresh= 2.243E-05 alpha_mix =  0.700 |ddv_scf|^2 =  7.020E-09

      iter #   7 total cpu time :  2978.1 secs   av.it.:  21.1
      thresh= 8.379E-06 alpha_mix =  0.700 |ddv_scf|^2 =  8.512E-10

      iter #   8 total cpu time :  2980.9 secs   av.it.:  20.6
      thresh= 2.918E-06 alpha_mix =  0.700 |ddv_scf|^2 =  8.873E-12

      iter #   9 total cpu time :  2983.8 secs   av.it.:  21.3
      thresh= 2.979E-07 alpha_mix =  0.700 |ddv_scf|^2 =  3.506E-13

      iter #  10 total cpu time :  2986.6 secs   av.it.:  21.0
      thresh= 5.921E-08 alpha_mix =  0.700 |ddv_scf|^2 =  9.255E-14

      iter #  11 total cpu time :  2989.1 secs   av.it.:  17.3
      thresh= 3.042E-08 alpha_mix =  0.700 |ddv_scf|^2 =  3.024E-14

      iter #  12 total cpu time :  2991.5 secs   av.it.:  17.3
      thresh= 1.739E-08 alpha_mix =  0.700 |ddv_scf|^2 =  1.197E-15

     End of self-consistent calculation

     Convergence has been achieved 


     Representation #   9 mode #   9

     Self-consistent Calculation

      iter #   1 total cpu time :  2993.1 secs   av.it.:   9.0
      thresh= 1.000E-02 alpha_mix =  0.700 |ddv_scf|^2 =  3.498E-06

      iter #   2 total cpu time :  2995.7 secs   av.it.:  17.9
      thresh= 1.870E-04 alpha_mix =  0.700 |ddv_scf|^2 =  1.727E-06

      iter #   3 total cpu time :  2998.2 secs   av.it.:  17.0
      thresh= 1.314E-04 alpha_mix =  0.700 |ddv_scf|^2 =  2.320E-07

      iter #   4 total cpu time :  3000.6 secs   av.it.:  16.8
      thresh= 4.817E-05 alpha_mix =  0.700 |ddv_scf|^2 =  2.128E-08

      iter #   5 total cpu time :  3003.0 secs   av.it.:  16.8
      thresh= 1.459E-05 alpha_mix =  0.700 |ddv_scf|^2 =  2.462E-10

      iter #   6 total cpu time :  3005.9 secs   av.it.:  20.6
      thresh= 1.569E-06 alpha_mix =  0.700 |ddv_scf|^2 =  1.450E-11

      iter #   7 total cpu time :  3008.8 secs   av.it.:  20.9
      thresh= 3.808E-07 alpha_mix =  0.700 |ddv_scf|^2 =  1.204E-12

      iter #   8 total cpu time :  3011.6 secs   av.it.:  20.8
      thresh= 1.097E-07 alpha_mix =  0.700 |ddv_scf|^2 =  2.071E-14

      iter #   9 total cpu time :  3014.5 secs   av.it.:  20.8
      thresh= 1.439E-08 alpha_mix =  0.700 |ddv_scf|^2 =  2.053E-15

     End of self-consistent calculation

     Convergence has been achieved 


     Representation #  10 mode #  10

     Self-consistent Calculation

      iter #   1 total cpu time :  3016.7 secs   av.it.:  13.1
      thresh= 1.000E-02 alpha_mix =  0.700 |ddv_scf|^2 =  3.464E-05

      iter #   2 total cpu time :  3019.3 secs   av.it.:  18.0
      thresh= 5.886E-04 alpha_mix =  0.700 |ddv_scf|^2 =  2.729E-05

      iter #   3 total cpu time :  3021.8 secs   av.it.:  17.2
      thresh= 5.224E-04 alpha_mix =  0.700 |ddv_scf|^2 =  7.167E-06

      iter #   4 total cpu time :  3024.3 secs   av.it.:  16.6
      thresh= 2.677E-04 alpha_mix =  0.700 |ddv_scf|^2 =  1.489E-07

      iter #   5 total cpu time :  3026.8 secs   av.it.:  17.8
      thresh= 3.859E-05 alpha_mix =  0.700 |ddv_scf|^2 =  5.199E-08

      iter #   6 total cpu time :  3029.5 secs   av.it.:  19.8
      thresh= 2.280E-05 alpha_mix =  0.700 |ddv_scf|^2 =  2.301E-09

      iter #   7 total cpu time :  3032.3 secs   av.it.:  21.2
      thresh= 4.797E-06 alpha_mix =  0.700 |ddv_scf|^2 =  4.887E-10

      iter #   8 total cpu time :  3035.0 secs   av.it.:  20.6
      thresh= 2.211E-06 alpha_mix =  0.700 |ddv_scf|^2 =  7.696E-12

      iter #   9 total cpu time :  3037.8 secs   av.it.:  20.8
      thresh= 2.774E-07 alpha_mix =  0.700 |ddv_scf|^2 =  6.137E-13

      iter #  10 total cpu time :  3040.6 secs   av.it.:  20.1
      thresh= 7.834E-08 alpha_mix =  0.700 |ddv_scf|^2 =  3.578E-14

      iter #  11 total cpu time :  3043.1 secs   av.it.:  18.2
      thresh= 1.892E-08 alpha_mix =  0.700 |ddv_scf|^2 =  2.898E-14

      iter #  12 total cpu time :  3045.6 secs   av.it.:  16.8
      thresh= 1.702E-08 alpha_mix =  0.700 |ddv_scf|^2 =  1.386E-15

     End of self-consistent calculation

     Convergence has been achieved 


     Representation #  11 mode #  11

     Self-consistent Calculation

      iter #   1 total cpu time :  3047.2 secs   av.it.:   9.0
      thresh= 1.000E-02 alpha_mix =  0.700 |ddv_scf|^2 =  6.807E-06

      iter #   2 total cpu time :  3049.8 secs   av.it.:  18.0
      thresh= 2.609E-04 alpha_mix =  0.700 |ddv_scf|^2 =  4.634E-06

      iter #   3 total cpu time :  3052.2 secs   av.it.:  17.3
      thresh= 2.153E-04 alpha_mix =  0.700 |ddv_scf|^2 =  2.966E-07

      iter #   4 total cpu time :  3054.5 secs   av.it.:  17.0
      thresh= 5.446E-05 alpha_mix =  0.700 |ddv_scf|^2 =  3.352E-08

      iter #   5 total cpu time :  3057.0 secs   av.it.:  17.8
      thresh= 1.831E-05 alpha_mix =  0.700 |ddv_scf|^2 =  2.951E-10

      iter #   6 total cpu time :  3059.7 secs   av.it.:  20.5
      thresh= 1.718E-06 alpha_mix =  0.700 |ddv_scf|^2 =  1.636E-11

      iter #   7 total cpu time :  3062.5 secs   av.it.:  20.8
      thresh= 4.045E-07 alpha_mix =  0.700 |ddv_scf|^2 =  1.627E-12

      iter #   8 total cpu time :  3065.2 secs   av.it.:  20.4
      thresh= 1.275E-07 alpha_mix =  0.700 |ddv_scf|^2 =  2.850E-14

      iter #   9 total cpu time :  3068.0 secs   av.it.:  20.0
      thresh= 1.688E-08 alpha_mix =  0.700 |ddv_scf|^2 =  8.672E-16

     End of self-consistent calculation

     Convergence has been achieved 


     Representation #  12 mode #  12

     Self-consistent Calculation

      iter #   1 total cpu time :  3070.1 secs   av.it.:  13.1
      thresh= 1.000E-02 alpha_mix =  0.700 |ddv_scf|^2 =  2.351E-05

      iter #   2 total cpu time :  3072.7 secs   av.it.:  18.1
      thresh= 4.848E-04 alpha_mix =  0.700 |ddv_scf|^2 =  7.539E-06

      iter #   3 total cpu time :  3075.2 secs   av.it.:  17.8
      thresh= 2.746E-04 alpha_mix =  0.700 |ddv_scf|^2 =  5.716E-06

      iter #   4 total cpu time :  3077.6 secs   av.it.:  16.4
      thresh= 2.391E-04 alpha_mix =  0.700 |ddv_scf|^2 =  1.206E-07

      iter #   5 total cpu time :  3080.1 secs   av.it.:  17.8
      thresh= 3.473E-05 alpha_mix =  0.700 |ddv_scf|^2 =  3.746E-08

      iter #   6 total cpu time :  3082.8 secs   av.it.:  19.4
      thresh= 1.935E-05 alpha_mix =  0.700 |ddv_scf|^2 =  4.424E-09

      iter #   7 total cpu time :  3085.6 secs   av.it.:  20.9
      thresh= 6.651E-06 alpha_mix =  0.700 |ddv_scf|^2 =  3.139E-10

      iter #   8 total cpu time :  3088.5 secs   av.it.:  21.3
      thresh= 1.772E-06 alpha_mix =  0.700 |ddv_scf|^2 =  1.222E-11

      iter #   9 total cpu time :  3091.4 secs   av.it.:  21.6
      thresh= 3.495E-07 alpha_mix =  0.700 |ddv_scf|^2 =  2.922E-12

      iter #  10 total cpu time :  3094.2 secs   av.it.:  19.7
      thresh= 1.709E-07 alpha_mix =  0.700 |ddv_scf|^2 =  2.582E-13

      iter #  11 total cpu time :  3097.3 secs   av.it.:  18.7
      thresh= 5.082E-08 alpha_mix =  0.700 |ddv_scf|^2 =  9.773E-15

     End of self-consistent calculation

     Convergence has been achieved 
 
     Number of q in the star =    6
     List of q in the star:
          1   0.250000000   0.433012702  -0.307079256
          2   0.250000000  -0.433012702  -0.307079256
          3  -0.250000000  -0.433012702  -0.307079256
          4  -0.500000000   0.000000000  -0.307079256
          5  -0.250000000   0.433012702  -0.307079256
          6   0.500000000  -0.000000000  -0.307079256

     Diagonalizing the dynamical matrix

     q = (    0.250000000   0.433012702  -0.307079256 ) 

 **************************************************************************
     freq (    1) =       4.712945 [THz] =     157.206918 [cm-1]
     freq (    2) =       4.712945 [THz] =     157.206918 [cm-1]
     freq (    3) =       6.377331 [THz] =     212.724849 [cm-1]
     freq (    4) =       6.377331 [THz] =     212.724849 [cm-1]
     freq (    5) =       9.413444 [THz] =     313.998708 [cm-1]
     freq (    6) =       9.413444 [THz] =     313.998708 [cm-1]
     freq (    7) =      17.330495 [THz] =     578.083086 [cm-1]
     freq (    8) =      17.330495 [THz] =     578.083086 [cm-1]
     freq (    9) =      18.916920 [THz] =     631.000538 [cm-1]
     freq (   10) =      18.916920 [THz] =     631.000538 [cm-1]
     freq (   11) =      20.203527 [THz] =     673.917130 [cm-1]
     freq (   12) =      20.203527 [THz] =     673.917130 [cm-1]
 **************************************************************************

     Mode symmetry, C_s (m)     point group:

     freq (   1-   1) =        157.2  [cm-1]   --> A'                 
     freq (   2-   2) =        157.2  [cm-1]   --> A''                
     freq (   3-   3) =        212.7  [cm-1]   --> A'                 
     freq (   4-   4) =        212.7  [cm-1]   --> A''                
     freq (   5-   5) =        314.0  [cm-1]   --> A'                 
     freq (   6-   6) =        314.0  [cm-1]   --> A''                
     freq (   7-   7) =        578.1  [cm-1]   --> A'                 
     freq (   8-   8) =        578.1  [cm-1]   --> A''                
     freq (   9-   9) =        631.0  [cm-1]   --> A'                 
     freq (  10-  10) =        631.0  [cm-1]   --> A''                
     freq (  11-  11) =        673.9  [cm-1]   --> A'                 
     freq (  12-  12) =        673.9  [cm-1]   --> A''                
 
     init_run     :      2.23s CPU      2.80s WALL (      11 calls)
     electrons    :     63.61s CPU     73.02s WALL (      11 calls)

     Called by init_run:
     wfcinit      :      0.00s CPU      0.01s WALL (      11 calls)
     potinit      :      1.17s CPU      1.47s WALL (      11 calls)
     hinit0       :      0.76s CPU      0.87s WALL (      11 calls)

     Called by electrons:
     c_bands      :     63.61s CPU     72.95s WALL (      11 calls)
     v_of_rho     :      0.02s CPU      0.03s WALL (      12 calls)
     newd         :      0.10s CPU      0.13s WALL (      12 calls)
     PAW_pot      :      1.14s CPU      1.42s WALL (      12 calls)

     Called by c_bands:
     init_us_2    :      5.71s CPU      6.59s WALL (   39060 calls)
     init_us_2:cp :      5.59s CPU      6.46s WALL (   39060 calls)
     cegterg      :     52.92s CPU     58.41s WALL (    1044 calls)

     Called by *egterg:
     cdiaghg      :     11.87s CPU     12.58s WALL (   13384 calls)
     h_psi        :   1531.18s CPU   1775.09s WALL (  887414 calls)
     s_psi        :     67.36s CPU     74.52s WALL ( 1792816 calls)
     g_psi        :      0.24s CPU      0.25s WALL (   12862 calls)

     Called by h_psi:
     h_psi:calbec :    102.04s CPU    118.56s WALL (  887414 calls)
     vloc_psi     :   1378.91s CPU   1600.79s WALL (  887414 calls)
     add_vuspsi   :     39.94s CPU     44.33s WALL (  887414 calls)

     General routines
     calbec       :    179.02s CPU    208.40s WALL ( 1847130 calls)
     fft          :      6.73s CPU      8.65s WALL (   23082 calls)
     ffts         :      2.57s CPU      3.43s WALL (    4836 calls)
     fftw         :   1409.73s CPU   1649.15s WALL (24284506 calls)
     davcio       :     10.71s CPU     12.79s WALL (  182263 calls)
 
     Parallel routines
 
     PHONON       :  45m10.58s CPU  51m37.41s WALL

     INITIALIZATION: 
     phq_setup    :      0.19s CPU      0.27s WALL (      12 calls)
     phq_init     :     14.09s CPU     15.61s WALL (      12 calls)
 
     phq_init     :     14.09s CPU     15.61s WALL (      12 calls)
     set_drhoc    :      0.88s CPU      0.89s WALL (      36 calls)
     init_vloc    :      0.10s CPU      0.10s WALL (      12 calls)
     init_us_1    :      0.52s CPU      0.64s WALL (      12 calls)
     init_us_2    :      5.71s CPU      6.59s WALL (   39060 calls)
     newd         :      0.10s CPU      0.13s WALL (      12 calls)
     dvanqq       :      1.09s CPU      1.20s WALL (      12 calls)
     drho         :     10.47s CPU     11.63s WALL (      12 calls)
     drhous       :      6.67s CPU      7.63s WALL (      12 calls)
     nldyntot     :      0.43s CPU      0.45s WALL (      12 calls)
 
     DYNAMICAL MATRIX:
     dynmat0      :      1.78s CPU      1.93s WALL (      12 calls)
     dynmat_us    :      0.96s CPU      1.04s WALL (      12 calls)
     addusdynmat  :      0.01s CPU      0.01s WALL (      12 calls)
     d2ionq       :      0.01s CPU      0.02s WALL (      12 calls)
     dynmatcc     :      0.68s CPU      0.69s WALL (      12 calls)
     phqscf       :   2608.29s CPU   2979.89s WALL (      12 calls)
     dynmatrix    :      0.05s CPU      0.12s WALL (      12 calls)
 
     phqscf       :   2608.29s CPU   2979.89s WALL (      12 calls)
     solve_linter :   2603.78s CPU   2973.83s WALL (     122 calls)
     sth_kernel   :   2264.70s CPU   2593.05s WALL (    1205 calls)
     h_prec       :      4.14s CPU      5.48s WALL (   31326 calls)
     apply_dpot_b :     72.87s CPU     88.42s WALL (   29200 calls)
     ortho        :     12.53s CPU     14.87s WALL (   32404 calls)
     cgsolve      :   1838.92s CPU   2127.88s WALL (   32404 calls)
     incdrhoscf   :     84.58s CPU    100.56s WALL (   32404 calls)
                                        0.00s GPU  (   32404 calls)
     addusddens   :     15.11s CPU     16.23s WALL (    1319 calls)
     dv_of_drho   :      3.56s CPU      4.11s WALL (    1380 calls)
     mix_pot      :      2.19s CPU      3.09s WALL (    1205 calls)
     drhodv       :      3.54s CPU      4.20s WALL (     122 calls)
     psymdvscf    :     30.97s CPU     32.13s WALL (    1197 calls)
     newdq        :     16.81s CPU     18.27s WALL (    1205 calls)
     adddvscf     :      4.96s CPU      5.68s WALL (   29200 calls)
     drhodvus     :      0.17s CPU      0.25s WALL (     122 calls)
 
     dvqpsi_us    :     16.52s CPU     19.49s WALL (    3228 calls)
                                        0.00s GPU  (    3228 calls)
     dvqpsi_us_on :      5.40s CPU      5.86s WALL (    3228 calls)
 
     add_vuspsi   :     39.94s CPU     44.33s WALL (  887414 calls)
     addusdbec    :      6.79s CPU      7.99s WALL (   35584 calls)
 
     drhodvus     :      0.17s CPU      0.25s WALL (     122 calls)
 
      General routines
     calbec       :    179.02s CPU    208.40s WALL ( 1847130 calls)
     fft          :      6.73s CPU      8.65s WALL (   23082 calls)
     ffts         :      2.57s CPU      3.43s WALL (    4836 calls)
     fftw         :   1409.73s CPU   1649.15s WALL (24284506 calls)
     davcio       :     10.71s CPU     12.79s WALL (  182263 calls)
     write_rec    :      2.93s CPU      7.05s WALL (    1327 calls)
 
      Additional routines
     ch_psi       :   1757.13s CPU   2034.01s WALL (  872986 calls)
     last         :    205.13s CPU    236.37s WALL (  872986 calls)
     Hesh         :      4.31s CPU      4.80s WALL (  872986 calls)
     ch_psi_all_k :    197.03s CPU    227.36s WALL (  872986 calls)
                                        0.00s GPU  (  872986 calls)
     ch_psi_calbe :     67.66s CPU     78.16s WALL (  872986 calls)
                                        0.00s GPU  (  872986 calls)
     h_psi_bgrp   :   1533.23s CPU   1777.29s WALL (  887414 calls)
     h_psi        :   1531.18s CPU   1775.09s WALL (  887414 calls)
     h_psi:pot    :   1525.27s CPU   1768.46s WALL (  887414 calls)
     h_psi:calbec :    102.04s CPU    118.56s WALL (  887414 calls)
     s_psi_bgrp   :     77.74s CPU     85.99s WALL ( 1792816 calls)
     s_psi        :     67.36s CPU     74.52s WALL ( 1792816 calls)
 
 
     PHONON       :  45m10.58s CPU  51m37.42s WALL

 
   This run was terminated on:  12:47: 9  10Jul2024            

=------------------------------------------------------------------------------=
   JOB DONE.
=------------------------------------------------------------------------------=
